
     Program PWSCF v.7.0 starts on 17Mar2022 at 14:34:38 

     This program is part of the open-source Quantum ESPRESSO suite
     for quantum simulation of materials; please cite
         "P. Giannozzi et al., J. Phys.:Condens. Matter 21 395502 (2009);
         "P. Giannozzi et al., J. Phys.:Condens. Matter 29 465901 (2017);
         "P. Giannozzi et al., J. Chem. Phys. 152 154105 (2020);
          URL http://www.quantum-espresso.org", 
     in publications or presentations arising from this work. More details at
     http://www.quantum-espresso.org/quote

     Serial multi-threaded version, running on   20 processor cores
     110371 MiB available memory on the printing compute node when the environment starts
 
     Reading input from qe_suite.bands.inp

     Current dimensions of program PWSCF are:
     Max number of different atomic species (ntypx) = 10
     Max number of k-points (npk) =  40000
     Max angular momentum in pseudopotentials (lmaxx) =  4

     Atomic positions and unit cell read from directory:
     ./qe_suite/qe_suite.save/
     Atomic positions from file used, from input discarded
 
     file C.pbesol-n-kjpaw_psl.1.0.0.UPF: wavefunction(s)  2S 2P renormalized
 
     G-vector sticks info
     --------------------
     sticks:   dense  smooth     PW     G-vecs:    dense   smooth      PW
     Sum         535     265     85                61065    21565    3993
 
     Using Slab Decomposition
 


     bravais-lattice index     =            4
     lattice parameter (alat)  =       4.6626  a.u.
     unit-cell volume          =     530.0634 (a.u.)^3
     number of atoms/cell      =            2
     number of atomic types    =            1
     number of electrons       =         8.00
     number of Kohn-Sham states=            5
     kinetic-energy cutoff     =      45.0000  Ry
     charge density cutoff     =     360.0000  Ry
     Exchange-correlation= SLA  PW   PSX  PSC
                           (   1   4  10   8   0   0   0)

     celldm(1)=   4.662612  celldm(2)=   1.000000  celldm(3)=   6.079401
     celldm(4)=   0.000000  celldm(5)=   0.000000  celldm(6)=   0.000000

     crystal axes: (cart. coord. in units of alat)
               a(1) = (   0.996697   0.000000   0.000000 )  
               a(2) = (  -0.498349   0.863165   0.000000 )  
               a(3) = (   0.000000   0.000000   6.078310 )  

     reciprocal axes: (cart. coord. in units 2 pi/alat)
               b(1) = (  1.003314  0.579263  0.000000 )  
               b(2) = (  0.000000  1.158527  0.000000 )  
               b(3) = (  0.000000  0.000000  0.164519 )  


     PseudoPot. # 1 for C  read from file:
     ../SSSP/C.pbesol-n-kjpaw_psl.1.0.0.UPF
     MD5 check sum: 5f3a56537b2bcef3348431d8311bb923
     Pseudo is Projector augmented-wave + core cor, Zval =  4.0
     Generated using "atomic" code by A. Dal Corso  v.6.0 svn rev. 13079
     Shape of augmentation charge: PSQ
     Using radial grid of 1073 points,  4 beta functions with: 
                l(1) =   0
                l(2) =   0
                l(3) =   1
                l(4) =   1
     Q(r) pseudized with 0 coefficients 


     atomic species   valence    mass     pseudopotential
        C              4.00    12.01100     C ( 1.00)

     24 Sym. Ops., with inversion, found



   Cartesian axes

     site n.     atom                  positions (alat units)
         1           C   tau(   1) = (   0.4983486   0.2877217   3.0391551  )
         2           C   tau(   2) = (   0.0000000   0.5754434   3.0391551  )

     number of k points=    60
                       cart. coord. in units 2pi/alat
        k(    1) = (   0.0000000   0.0000000   0.0000000), wk =   0.0333333
        k(    2) = (   0.0250828   0.0144816   0.0000000), wk =   0.0333333
        k(    3) = (   0.0501657   0.0289632   0.0000000), wk =   0.0333333
        k(    4) = (   0.0752485   0.0434448   0.0000000), wk =   0.0333333
        k(    5) = (   0.1003314   0.0579263   0.0000000), wk =   0.0333333
        k(    6) = (   0.1254142   0.0724079   0.0000000), wk =   0.0333333
        k(    7) = (   0.1504971   0.0868895   0.0000000), wk =   0.0333333
        k(    8) = (   0.1755799   0.1013711   0.0000000), wk =   0.0333333
        k(    9) = (   0.2006628   0.1158527   0.0000000), wk =   0.0333333
        k(   10) = (   0.2257456   0.1303343   0.0000000), wk =   0.0333333
        k(   11) = (   0.2508284   0.1448159   0.0000000), wk =   0.0333333
        k(   12) = (   0.2759113   0.1592975   0.0000000), wk =   0.0333333
        k(   13) = (   0.3009941   0.1737790   0.0000000), wk =   0.0333333
        k(   14) = (   0.3260770   0.1882606   0.0000000), wk =   0.0333333
        k(   15) = (   0.3511598   0.2027422   0.0000000), wk =   0.0333333
        k(   16) = (   0.3762427   0.2172238   0.0000000), wk =   0.0333333
        k(   17) = (   0.4013255   0.2317054   0.0000000), wk =   0.0333333
        k(   18) = (   0.4264084   0.2461870   0.0000000), wk =   0.0333333
        k(   19) = (   0.4514912   0.2606686   0.0000000), wk =   0.0333333
        k(   20) = (   0.4765741   0.2751502   0.0000000), wk =   0.0333333
        k(   21) = (   0.5016569   0.2896317   0.0000000), wk =   0.0333333
        k(   22) = (   0.4932959   0.3041133   0.0000000), wk =   0.0333333
        k(   23) = (   0.4849350   0.3185949   0.0000000), wk =   0.0333333
        k(   24) = (   0.4765741   0.3330765   0.0000000), wk =   0.0333333
        k(   25) = (   0.4682131   0.3475581   0.0000000), wk =   0.0333333
        k(   26) = (   0.4598522   0.3620397   0.0000000), wk =   0.0333333
        k(   27) = (   0.4514912   0.3765213   0.0000000), wk =   0.0333333
        k(   28) = (   0.4431303   0.3910029   0.0000000), wk =   0.0333333
        k(   29) = (   0.4347693   0.4054844   0.0000000), wk =   0.0333333
        k(   30) = (   0.4264084   0.4199660   0.0000000), wk =   0.0333333
        k(   31) = (   0.4180474   0.4344476   0.0000000), wk =   0.0333333
        k(   32) = (   0.4096865   0.4489292   0.0000000), wk =   0.0333333
        k(   33) = (   0.4013255   0.4634108   0.0000000), wk =   0.0333333
        k(   34) = (   0.3929646   0.4778924   0.0000000), wk =   0.0333333
        k(   35) = (   0.3846036   0.4923740   0.0000000), wk =   0.0333333
        k(   36) = (   0.3762427   0.5068556   0.0000000), wk =   0.0333333
        k(   37) = (   0.3678817   0.5213371   0.0000000), wk =   0.0333333
        k(   38) = (   0.3595208   0.5358187   0.0000000), wk =   0.0333333
        k(   39) = (   0.3511598   0.5503003   0.0000000), wk =   0.0333333
        k(   40) = (   0.3427989   0.5647819   0.0000000), wk =   0.0333333
        k(   41) = (   0.3344379   0.5792635   0.0000000), wk =   0.0333333
        k(   42) = (   0.3177160   0.5503003   0.0000000), wk =   0.0333333
        k(   43) = (   0.3009941   0.5213371   0.0000000), wk =   0.0333333
        k(   44) = (   0.2842722   0.4923740   0.0000000), wk =   0.0333333
        k(   45) = (   0.2675503   0.4634108   0.0000000), wk =   0.0333333
        k(   46) = (   0.2508284   0.4344476   0.0000000), wk =   0.0333333
        k(   47) = (   0.2341066   0.4054844   0.0000000), wk =   0.0333333
        k(   48) = (   0.2173847   0.3765213   0.0000000), wk =   0.0333333
        k(   49) = (   0.2006628   0.3475581   0.0000000), wk =   0.0333333
        k(   50) = (   0.1839409   0.3185949   0.0000000), wk =   0.0333333
        k(   51) = (   0.1672190   0.2896317   0.0000000), wk =   0.0333333
        k(   52) = (   0.1504971   0.2606686   0.0000000), wk =   0.0333333
        k(   53) = (   0.1337752   0.2317054   0.0000000), wk =   0.0333333
        k(   54) = (   0.1170533   0.2027422   0.0000000), wk =   0.0333333
        k(   55) = (   0.1003314   0.1737790   0.0000000), wk =   0.0333333
        k(   56) = (   0.0836095   0.1448159   0.0000000), wk =   0.0333333
        k(   57) = (   0.0668876   0.1158527   0.0000000), wk =   0.0333333
        k(   58) = (   0.0501657   0.0868895   0.0000000), wk =   0.0333333
        k(   59) = (   0.0334438   0.0579263   0.0000000), wk =   0.0333333
        k(   60) = (   0.0167219   0.0289632   0.0000000), wk =   0.0333333

     Dense  grid:    61065 G-vectors     FFT dimensions: (  30,  30, 180)

     Smooth grid:    21565 G-vectors     FFT dimensions: (  20,  20, 125)

     Estimated max dynamical RAM per process >      62.37 MB

     Check: negative core charge=   -0.000005

     The potential is recalculated from file :
     ./qe_suite/qe_suite.save/charge-density


     negative rho (up, down):  2.107E-04 0.000E+00
     Starting wfcs are    8 randomized atomic wfcs

     Band Structure Calculation
     Davidson diagonalization with overlap

     ethr =  5.00E-12,  avg # of iterations = 32.1

     total cpu time spent up to now is        4.3 secs

     End of band structure calculation

          k = 0.0000 0.0000 0.0000 (  2629 PWs)   bands (ev):

   -21.3235  -9.4743  -4.7766  -4.7766   1.4747

          k = 0.0251 0.0145 0.0000 (  2627 PWs)   bands (ev):

   -21.3087  -9.4565  -4.8382  -4.8097   1.4950

          k = 0.0502 0.0290 0.0000 (  2631 PWs)   bands (ev):

   -21.2641  -9.4030  -5.0195  -4.9063   1.5557

          k = 0.0752 0.0434 0.0000 (  2645 PWs)   bands (ev):

   -21.1899  -9.3140  -5.3106  -5.0592   1.6570

          k = 0.1003 0.0579 0.0000 (  2661 PWs)   bands (ev):

   -21.0862  -9.1897  -5.6972  -5.2581   1.7987

          k = 0.1254 0.0724 0.0000 (  2673 PWs)   bands (ev):

   -20.9530  -9.0304  -6.1635  -5.4912   1.9810

          k = 0.1505 0.0869 0.0000 (  2679 PWs)   bands (ev):

   -20.7904  -8.8365  -6.6934  -5.7473   2.2037

          k = 0.1756 0.1014 0.0000 (  2687 PWs)   bands (ev):

   -20.5986  -8.6086  -7.2724  -6.0161   2.4667

          k = 0.2007 0.1159 0.0000 (  2681 PWs)   bands (ev):

   -20.3779  -8.3473  -7.8875  -6.2886   2.7701

          k = 0.2257 0.1303 0.0000 (  2679 PWs)   bands (ev):

   -20.1284  -8.5280  -8.0536  -6.5576   3.1137

          k = 0.2508 0.1448 0.0000 (  2683 PWs)   bands (ev):

   -19.8505  -9.1846  -7.7287  -6.8171   3.4971

          k = 0.2759 0.1593 0.0000 (  2691 PWs)   bands (ev):

   -19.5445  -9.8498  -7.3743  -7.0624   3.9203

          k = 0.3010 0.1738 0.0000 (  2690 PWs)   bands (ev):

   -19.2110 -10.5172  -7.2896  -6.9927   4.0986

          k = 0.3261 0.1883 0.0000 (  2694 PWs)   bands (ev):

   -18.8506 -11.1815  -7.4956  -6.5872   3.4037

          k = 0.3512 0.2027 0.0000 (  2696 PWs)   bands (ev):

   -18.4639 -11.8381  -7.6782  -6.1625   2.7101

          k = 0.3762 0.2172 0.0000 (  2696 PWs)   bands (ev):

   -18.0522 -12.4827  -7.8354  -5.7259   2.0364

          k = 0.4013 0.2317 0.0000 (  2698 PWs)   bands (ev):

   -17.6173 -13.1110  -7.9658  -5.2892   1.3997

          k = 0.4264 0.2462 0.0000 (  2696 PWs)   bands (ev):

   -17.1630 -13.7177  -8.0683  -4.8718   0.8233

          k = 0.4515 0.2607 0.0000 (  2704 PWs)   bands (ev):

   -16.6984 -14.2921  -8.1421  -4.5067   0.3427

          k = 0.4766 0.2752 0.0000 (  2704 PWs)   bands (ev):

   -16.2564 -14.8002  -8.1865  -4.2452   0.0112

          k = 0.5017 0.2896 0.0000 (  2716 PWs)   bands (ev):

   -16.0121 -15.0667  -8.2014  -4.1480  -0.1095

          k = 0.4933 0.3041 0.0000 (  2708 PWs)   bands (ev):

   -16.0079 -15.0624  -8.2238  -4.1419  -0.1108

          k = 0.4849 0.3186 0.0000 (  2702 PWs)   bands (ev):

   -15.9953 -15.0495  -8.2905  -4.1238  -0.1145

          k = 0.4766 0.3331 0.0000 (  2709 PWs)   bands (ev):

   -15.9742 -15.0281  -8.3996  -4.0936  -0.1212

          k = 0.4682 0.3476 0.0000 (  2707 PWs)   bands (ev):

   -15.9447 -14.9982  -8.5480  -4.0513  -0.1313

          k = 0.4599 0.3620 0.0000 (  2713 PWs)   bands (ev):

   -15.9068 -14.9601  -8.7320  -3.9969  -0.1457

          k = 0.4515 0.3765 0.0000 (  2713 PWs)   bands (ev):

   -15.8605 -14.9138  -8.9475  -3.9306  -0.1652

          k = 0.4431 0.3910 0.0000 (  2707 PWs)   bands (ev):

   -15.8058 -14.8597  -9.1900  -3.8522  -0.1911

          k = 0.4348 0.4055 0.0000 (  2711 PWs)   bands (ev):

   -15.7427 -14.7980  -9.4549  -3.7619  -0.2249

          k = 0.4264 0.4200 0.0000 (  2717 PWs)   bands (ev):

   -15.6712 -14.7294  -9.7379  -3.6596  -0.2680

          k = 0.4180 0.4344 0.0000 (  2717 PWs)   bands (ev):

   -15.5913 -14.6543 -10.0348  -3.5455  -0.3221

          k = 0.4097 0.4489 0.0000 (  2729 PWs)   bands (ev):

   -15.5031 -14.5738 -10.3413  -3.4196  -0.3890

          k = 0.4013 0.4634 0.0000 (  2741 PWs)   bands (ev):

   -15.4065 -14.4893 -10.6533  -3.2819  -0.4705

          k = 0.3930 0.4779 0.0000 (  2745 PWs)   bands (ev):

   -15.3016 -14.4027 -10.9662  -3.1326  -0.5680

          k = 0.3846 0.4924 0.0000 (  2747 PWs)   bands (ev):

   -15.1883 -14.3171 -11.2748  -2.9716  -0.6831

          k = 0.3762 0.5069 0.0000 (  2751 PWs)   bands (ev):

   -15.0667 -14.2375 -11.5722  -2.7991  -0.8166

          k = 0.3679 0.5213 0.0000 (  2749 PWs)   bands (ev):

   -14.9368 -14.1717 -11.8491  -2.6152  -0.9694

          k = 0.3595 0.5358 0.0000 (  2757 PWs)   bands (ev):

   -14.7987 -14.1320 -12.0917  -2.4200  -1.1415

          k = 0.3512 0.5503 0.0000 (  2753 PWs)   bands (ev):

   -14.6523 -14.1358 -12.2816  -2.2135  -1.3326

          k = 0.3428 0.5648 0.0000 (  2757 PWs)   bands (ev):

   -14.4977 -14.2009 -12.4001  -1.9961  -1.5417

          k = 0.3344 0.5793 0.0000 (  2763 PWs)   bands (ev):

   -14.3350 -14.3350 -12.4385  -1.7677  -1.7677

          k = 0.3177 0.5503 0.0000 (  2745 PWs)   bands (ev):

   -14.7665 -13.9852 -12.3166  -2.2631  -1.2787

          k = 0.3010 0.5213 0.0000 (  2743 PWs)   bands (ev):

   -15.3085 -13.6033 -12.0338  -2.8036  -0.7482

          k = 0.2843 0.4924 0.0000 (  2735 PWs)   bands (ev):

   -15.8828 -13.1900 -11.6660  -3.3728  -0.1780

          k = 0.2676 0.4634 0.0000 (  2739 PWs)   bands (ev):

   -16.4560 -12.7458 -11.2459  -3.9556   0.4298

          k = 0.2508 0.4344 0.0000 (  2731 PWs)   bands (ev):

   -17.0129 -12.2717 -10.7885  -4.5389   1.0725

          k = 0.2341 0.4055 0.0000 (  2721 PWs)   bands (ev):

   -17.5459 -11.7689 -10.3029  -5.1123   1.7469

          k = 0.2174 0.3765 0.0000 (  2703 PWs)   bands (ev):

   -18.0502 -11.2388  -9.7959  -5.6673   2.4488

          k = 0.2007 0.3476 0.0000 (  2701 PWs)   bands (ev):

   -18.5230 -10.6836  -9.2737  -6.1972   3.1735

          k = 0.1839 0.3186 0.0000 (  2705 PWs)   bands (ev):

   -18.9622 -10.1058  -8.7425  -6.6969   3.9149

          k = 0.1672 0.2896 0.0000 (  2695 PWs)   bands (ev):

   -19.3662  -9.5088  -8.2092  -7.1622   4.1720

          k = 0.1505 0.2607 0.0000 (  2701 PWs)   bands (ev):

   -19.7342  -8.8973  -7.6816  -7.5900   3.6606

          k = 0.1338 0.2317 0.0000 (  2687 PWs)   bands (ev):

   -20.0651  -8.2774  -7.9778  -7.1680   3.2025

          k = 0.1171 0.2027 0.0000 (  2681 PWs)   bands (ev):

   -20.3583  -8.3236  -7.6574  -6.6779   2.7978

          k = 0.1003 0.1738 0.0000 (  2679 PWs)   bands (ev):

   -20.6134  -8.6259  -7.0483  -6.2219   2.4469

          k = 0.0836 0.1448 0.0000 (  2681 PWs)   bands (ev):

   -20.8298  -8.8834  -6.4652  -5.8107   2.1498

          k = 0.0669 0.1159 0.0000 (  2671 PWs)   bands (ev):

   -21.0072  -9.0952  -5.9278  -5.4552   1.9068

          k = 0.0502 0.0869 0.0000 (  2661 PWs)   bands (ev):

   -21.1455  -9.2607  -5.4610  -5.1661   1.7177

          k = 0.0334 0.0579 0.0000 (  2635 PWs)   bands (ev):

   -21.2443  -9.3793  -5.0944  -4.9522   1.5827

          k = 0.0167 0.0290 0.0000 (  2631 PWs)   bands (ev):

   -21.3037  -9.4505  -4.8584  -4.8209   1.5017

     Writing all to output data dir ./qe_suite/qe_suite.save/
 
     init_run     :      6.69s CPU      0.41s WALL (       1 calls)
     electrons    :     71.62s CPU      3.76s WALL (       1 calls)

     Called by init_run:
     wfcinit      :      0.00s CPU      0.00s WALL (       1 calls)
     potinit      :      1.04s CPU      0.06s WALL (       1 calls)
     hinit0       :      2.97s CPU      0.18s WALL (       1 calls)

     Called by electrons:
     c_bands      :     71.47s CPU      3.75s WALL (       1 calls)
     v_of_rho     :      0.49s CPU      0.03s WALL (       1 calls)
     newd         :      1.81s CPU      0.10s WALL (       1 calls)
     PAW_pot      :      0.44s CPU      0.02s WALL (       1 calls)

     Called by c_bands:
     init_us_2    :      0.07s CPU      0.01s WALL (      60 calls)
     init_us_2:cp :      0.07s CPU      0.01s WALL (      60 calls)
     cegterg      :     65.21s CPU      3.42s WALL (     125 calls)

     Called by *egterg:
     cdiaghg      :      3.48s CPU      0.11s WALL (    1984 calls)
     h_psi        :     51.37s CPU      2.71s WALL (    2109 calls)
     s_psi        :      0.35s CPU      0.06s WALL (    2109 calls)
     g_psi        :      1.48s CPU      0.03s WALL (    1924 calls)

     Called by h_psi:
     h_psi:calbec :      7.50s CPU      0.10s WALL (    2109 calls)
     vloc_psi     :     26.74s CPU      2.46s WALL (    2109 calls)
     add_vuspsi   :     15.91s CPU      0.09s WALL (    2109 calls)

     General routines
     calbec       :      7.41s CPU      0.10s WALL (    2109 calls)
     fft          :      0.75s CPU      0.04s WALL (      13 calls)
     ffts         :      0.00s CPU      0.00s WALL (       1 calls)
     fftw         :     24.21s CPU      2.06s WALL (   15198 calls)
     interpolate  :      0.03s CPU      0.00s WALL (       1 calls)
     davcio       :      0.36s CPU      0.02s WALL (     120 calls)
 
 
     PWSCF        :   1m20.19s CPU      4.41s WALL

 
   This run was terminated on:  14:34:42  17Mar2022            

=------------------------------------------------------------------------------=
   JOB DONE.
=------------------------------------------------------------------------------=
