
     Program PWSCF v.7.0 starts on 15Mar2022 at 16:24: 8 

     This program is part of the open-source Quantum ESPRESSO suite
     for quantum simulation of materials; please cite
         "P. Giannozzi et al., J. Phys.:Condens. Matter 21 395502 (2009);
         "P. Giannozzi et al., J. Phys.:Condens. Matter 29 465901 (2017);
         "P. Giannozzi et al., J. Chem. Phys. 152 154105 (2020);
          URL http://www.quantum-espresso.org", 
     in publications or presentations arising from this work. More details at
     http://www.quantum-espresso.org/quote

     Serial multi-threaded version, running on   20 processor cores
     109158 MiB available memory on the printing compute node when the environment starts
 
     Reading input from qe_suite.scf.inp

     Current dimensions of program PWSCF are:
     Max number of different atomic species (ntypx) = 10
     Max number of k-points (npk) =  40000
     Max angular momentum in pseudopotentials (lmaxx) =  4
     file C.pbesol-n-kjpaw_psl.1.0.0.UPF: wavefunction(s)  2S 2P renormalized
     Message from routine setup:
     using ibrav=0 with symmetry is DISCOURAGED, use correct ibrav instead
 
     G-vector sticks info
     --------------------
     sticks:   dense  smooth     PW     G-vecs:    dense   smooth      PW
     Sum         499     241     85                53125    18399    4017
 
     Using Slab Decomposition
 


     bravais-lattice index     =            0
     lattice parameter (alat)  =       4.6620  a.u.
     unit-cell volume          =     533.6562 (a.u.)^3
     number of atoms/cell      =            2
     number of atomic types    =            1
     number of electrons       =         8.00
     number of Kohn-Sham states=            4
     kinetic-energy cutoff     =      40.1329  Ry
     charge density cutoff     =     325.4880  Ry
     scf convergence threshold =      4.0E-10
     mixing beta               =       0.4000
     number of iterations used =            8  plain     mixing
     energy convergence thresh.=      1.0E-04
     force convergence thresh. =      1.0E-03
     press convergence thresh. =      1.0E-01
     Exchange-correlation= SLA  PW   PSX  PSC
                           (   1   4  10   8   0   0   0)
     nstep                     =           50


     celldm(1)=   4.661954  celldm(2)=   0.000000  celldm(3)=   0.000000
     celldm(4)=   0.000000  celldm(5)=   0.000000  celldm(6)=   0.000000

     crystal axes: (cart. coord. in units of alat)
               a(1) = (   1.000000   0.000000   0.000000 )  
               a(2) = (  -0.500203   0.866234   0.000000 )  
               a(3) = (   0.000000   0.000000   6.080259 )  

     reciprocal axes: (cart. coord. in units 2 pi/alat)
               b(1) = (  1.000000  0.577445  0.000000 )  
               b(2) = (  0.000000  1.154422  0.000000 )  
               b(3) = (  0.000000  0.000000  0.164467 )  


     PseudoPot. # 1 for C  read from file:
     ../SSSP/C.pbesol-n-kjpaw_psl.1.0.0.UPF
     MD5 check sum: 5f3a56537b2bcef3348431d8311bb923
     Pseudo is Projector augmented-wave + core cor, Zval =  4.0
     Generated using "atomic" code by A. Dal Corso  v.6.0 svn rev. 13079
     Shape of augmentation charge: PSQ
     Using radial grid of 1073 points,  4 beta functions with: 
                l(1) =   0
                l(2) =   0
                l(3) =   1
                l(4) =   1
     Q(r) pseudized with 0 coefficients 


     atomic species   valence    mass     pseudopotential
        C              4.00    12.01070     C ( 1.00)

      4 Sym. Ops., with inversion, found



   Cartesian axes

     site n.     atom                  positions (alat units)
         1           C   tau(   1) = (   0.4999824   0.2887159   3.0401297  )
         2           C   tau(   2) = (  -0.0001851   0.5775184   3.0401297  )

     number of k points=   200

     Number of k-points >= 100: set verbosity='high' to print them.

     Dense  grid:    53125 G-vectors     FFT dimensions: (  27,  27, 180)

     Smooth grid:    18399 G-vectors     FFT dimensions: (  20,  20, 120)

     Estimated max dynamical RAM per process >     100.86 MB

     Check: negative core charge=   -0.000005

     Initial potential from superposition of free atoms

     starting charge       7.9999, renormalised to       8.0000

     negative rho (up, down):  4.343E-05 0.000E+00
     Starting wfcs are    8 randomized atomic wfcs

     total cpu time spent up to now is        1.7 secs

     Self-consistent Calculation

     iteration #  1     ecut=    40.13 Ry     beta= 0.40
     Davidson diagonalization with overlap
     ethr =  1.00E-02,  avg # of iterations =  2.0

     negative rho (up, down):  7.669E-05 0.000E+00

     total cpu time spent up to now is        2.7 secs

     total energy              =     -36.24118615 Ry
     estimated scf accuracy    <       0.18504768 Ry

     iteration #  2     ecut=    40.13 Ry     beta= 0.40
     Davidson diagonalization with overlap
     ethr =  2.31E-03,  avg # of iterations =  1.0

     negative rho (up, down):  1.568E-04 0.000E+00

     total cpu time spent up to now is        3.5 secs

     total energy              =     -36.22247927 Ry
     estimated scf accuracy    <       0.04242204 Ry

     iteration #  3     ecut=    40.13 Ry     beta= 0.40
     Davidson diagonalization with overlap
     ethr =  5.30E-04,  avg # of iterations =  2.0

     negative rho (up, down):  1.403E-04 0.000E+00

     total cpu time spent up to now is        4.5 secs

     total energy              =     -36.23111111 Ry
     estimated scf accuracy    <       0.00150946 Ry

     iteration #  4     ecut=    40.13 Ry     beta= 0.40
     Davidson diagonalization with overlap
     ethr =  1.89E-05,  avg # of iterations =  2.0

     negative rho (up, down):  1.578E-04 0.000E+00

     total cpu time spent up to now is        5.4 secs

     total energy              =     -36.23113785 Ry
     estimated scf accuracy    <       0.00092741 Ry

     iteration #  5     ecut=    40.13 Ry     beta= 0.40
     Davidson diagonalization with overlap
     ethr =  1.16E-05,  avg # of iterations =  2.0

     negative rho (up, down):  1.554E-04 0.000E+00

     total cpu time spent up to now is        6.3 secs

     total energy              =     -36.23130268 Ry
     estimated scf accuracy    <       0.00001271 Ry

     iteration #  6     ecut=    40.13 Ry     beta= 0.40
     Davidson diagonalization with overlap
     ethr =  1.59E-07,  avg # of iterations =  3.1

     negative rho (up, down):  1.561E-04 0.000E+00

     total cpu time spent up to now is        7.3 secs

     total energy              =     -36.23130681 Ry
     estimated scf accuracy    <       0.00000063 Ry

     iteration #  7     ecut=    40.13 Ry     beta= 0.40
     Davidson diagonalization with overlap
     ethr =  7.93E-09,  avg # of iterations =  3.0

     negative rho (up, down):  1.568E-04 0.000E+00

     total cpu time spent up to now is        8.4 secs

     total energy              =     -36.23130712 Ry
     estimated scf accuracy    <       0.00000003 Ry

     iteration #  8     ecut=    40.13 Ry     beta= 0.40
     Davidson diagonalization with overlap
     ethr =  3.86E-10,  avg # of iterations =  3.2

     negative rho (up, down):  1.575E-04 0.000E+00

     total cpu time spent up to now is        9.5 secs

     total energy              =     -36.23130713 Ry
     estimated scf accuracy    <          5.9E-09 Ry

     iteration #  9     ecut=    40.13 Ry     beta= 0.40
     Davidson diagonalization with overlap
     ethr =  7.39E-11,  avg # of iterations =  2.1

     negative rho (up, down):  1.589E-04 0.000E+00

     total cpu time spent up to now is       10.4 secs

     End of self-consistent calculation

     Number of k-points >= 100: set verbosity='high' to print the bands.

     highest occupied level (ev):    -2.0425

!    total energy              =     -36.23130714 Ry

     total all-electron energy =      -151.789363 Ry
     estimated scf accuracy    <          5.0E-11 Ry

     The total energy is the sum of the following terms:
     one-electron contribution =    -156.57415746 Ry
     hartree contribution      =      79.87180560 Ry
     xc contribution           =      -9.15464228 Ry
     ewald contribution        =      61.40600765 Ry
     one-center paw contrib.   =     -11.78032066 Ry

     convergence has been achieved in   9 iterations

     negative rho (up, down):  1.589E-04 0.000E+00

     Forces acting on atoms (cartesian axes, Ry/au):

     atom    1 type  1   force =    -0.00153661    0.00072642    0.00000000
     atom    2 type  1   force =     0.00153661   -0.00072642    0.00000000

     Total force =     0.002404     Total SCF correction =     0.000000


     Computing stress (Cartesian axis) and pressure


     negative rho (up, down):  1.589E-04 0.000E+00
          total   stress  (Ry/bohr**3)                   (kbar)     P=       -7.55
  -0.00007121   0.00000526   0.00000000          -10.47        0.77        0.00
   0.00000526  -0.00007022   0.00000000            0.77      -10.33        0.00
   0.00000000   0.00000000  -0.00001249            0.00        0.00       -1.84


     BFGS Geometry Optimization
     Energy error            =      0.0E+00 Ry
     Gradient error          =      1.5E-03 Ry/Bohr
     Cell gradient error     =      1.0E+01 kbar

     number of scf cycles    =   1
     number of bfgs steps    =   0

     enthalpy           new  =     -36.2313071358 Ry

     new trust radius        =       0.0082470972 bohr
     new conv_thr            =       0.0000000004 Ry

     new unit-cell volume =    531.60494 a.u.^3 (    78.77572 Ang^3 )
     density =      0.50635 g/cm^3

CELL_PARAMETERS (angstrom)
   2.462608353   0.000324463   0.000000000
  -1.231522226   2.133086249   0.000000000
   0.000000000   0.000000000  14.995315378

ATOMIC_POSITIONS (crystal)
C             0.6664603710        0.3334798801        0.5000000000
C             0.3335396290        0.6665201199        0.5000000000



     Writing config-only to output data dir ./pwscf.save/
     NEW-OLD atomic charge density approx. for the potential

     Check: negative core charge=   -0.000005

     negative rho (up, down):  1.618E-04 0.000E+00
     extrapolated charge    7.96913, renormalised to    8.00000

     total cpu time spent up to now is       13.2 secs

     Self-consistent Calculation

     iteration #  1     ecut=    40.13 Ry     beta= 0.40
     Davidson diagonalization with overlap
     ethr =  1.00E-06,  avg # of iterations =  3.0

     negative rho (up, down):  1.649E-04 0.000E+00

     total cpu time spent up to now is       14.5 secs

     total energy              =     -36.23105365 Ry
     estimated scf accuracy    <       0.00020967 Ry

     iteration #  2     ecut=    40.13 Ry     beta= 0.40
     Davidson diagonalization with overlap
     ethr =  2.62E-06,  avg # of iterations =  3.0

     negative rho (up, down):  1.641E-04 0.000E+00

     total cpu time spent up to now is       15.6 secs

     total energy              =     -36.23141916 Ry
     estimated scf accuracy    <       0.00005442 Ry

     iteration #  3     ecut=    40.13 Ry     beta= 0.40
     Davidson diagonalization with overlap
     ethr =  6.80E-07,  avg # of iterations =  1.0

     negative rho (up, down):  1.627E-04 0.000E+00

     total cpu time spent up to now is       16.2 secs

     total energy              =     -36.23140495 Ry
     estimated scf accuracy    <       0.00002314 Ry

     iteration #  4     ecut=    40.13 Ry     beta= 0.40
     Davidson diagonalization with overlap
     ethr =  2.89E-07,  avg # of iterations =  2.0

     negative rho (up, down):  1.626E-04 0.000E+00

     total cpu time spent up to now is       17.3 secs

     total energy              =     -36.23141026 Ry
     estimated scf accuracy    <       0.00000030 Ry

     iteration #  5     ecut=    40.13 Ry     beta= 0.40
     Davidson diagonalization with overlap
     ethr =  3.69E-09,  avg # of iterations =  2.3

     negative rho (up, down):  1.626E-04 0.000E+00

     total cpu time spent up to now is       18.1 secs

     total energy              =     -36.23141031 Ry
     estimated scf accuracy    <       0.00000023 Ry

     iteration #  6     ecut=    40.13 Ry     beta= 0.40
     Davidson diagonalization with overlap
     ethr =  2.84E-09,  avg # of iterations =  1.0

     negative rho (up, down):  1.627E-04 0.000E+00

     total cpu time spent up to now is       18.8 secs

     total energy              =     -36.23141026 Ry
     estimated scf accuracy    <       0.00000009 Ry

     iteration #  7     ecut=    40.13 Ry     beta= 0.40
     Davidson diagonalization with overlap
     ethr =  1.11E-09,  avg # of iterations =  2.0

     negative rho (up, down):  1.626E-04 0.000E+00

     total cpu time spent up to now is       19.8 secs

     total energy              =     -36.23141029 Ry
     estimated scf accuracy    <       0.00000001 Ry

     iteration #  8     ecut=    40.13 Ry     beta= 0.40
     Davidson diagonalization with overlap
     ethr =  1.40E-10,  avg # of iterations =  1.3

     negative rho (up, down):  1.626E-04 0.000E+00

     total cpu time spent up to now is       20.5 secs

     total energy              =     -36.23141028 Ry
     estimated scf accuracy    <          6.8E-09 Ry

     iteration #  9     ecut=    40.13 Ry     beta= 0.40
     Davidson diagonalization with overlap
     ethr =  8.53E-11,  avg # of iterations =  2.0

     negative rho (up, down):  1.626E-04 0.000E+00

     total cpu time spent up to now is       21.5 secs

     total energy              =     -36.23141028 Ry
     estimated scf accuracy    <          3.3E-09 Ry

     iteration # 10     ecut=    40.13 Ry     beta= 0.40
     Davidson diagonalization with overlap
     ethr =  4.19E-11,  avg # of iterations =  2.0

     negative rho (up, down):  1.626E-04 0.000E+00

     total cpu time spent up to now is       22.5 secs

     End of self-consistent calculation

     Number of k-points >= 100: set verbosity='high' to print the bands.

     highest occupied level (ev):    -2.0349

!    total energy              =     -36.23141028 Ry

     total all-electron energy =      -151.789466 Ry
     estimated scf accuracy    <          1.0E-12 Ry

     The total energy is the sum of the following terms:
     one-electron contribution =    -157.08119633 Ry
     hartree contribution      =      80.13103024 Ry
     xc contribution           =      -9.16276639 Ry
     ewald contribution        =      61.66216699 Ry
     one-center paw contrib.   =     -11.78064479 Ry

     convergence has been achieved in  10 iterations

     negative rho (up, down):  1.626E-04 0.000E+00

     Forces acting on atoms (cartesian axes, Ry/au):

     atom    1 type  1   force =     0.00205695   -0.00094446    0.00000000
     atom    2 type  1   force =    -0.00205695    0.00094446    0.00000000

     Total force =     0.003201     Total SCF correction =     0.000000


     Computing stress (Cartesian axis) and pressure


     negative rho (up, down):  1.626E-04 0.000E+00
          total   stress  (Ry/bohr**3)                   (kbar)     P=       -4.23
  -0.00003584   0.00000055   0.00000000           -5.27        0.08        0.00
   0.00000055  -0.00003804   0.00000000            0.08       -5.60        0.00
   0.00000000   0.00000000  -0.00001229            0.00        0.00       -1.81

     Energy error            =      1.0E-04 Ry
     Gradient error          =      2.1E-03 Ry/Bohr
     Cell gradient error     =      5.6E+00 kbar

     number of scf cycles    =   2
     number of bfgs steps    =   1

     enthalpy           old  =     -36.2313071358 Ry
     enthalpy           new  =     -36.2314102828 Ry

     CASE: enthalpy          _new < enthalpy          _old

     new trust radius        =       0.0117086229 bohr
     new conv_thr            =            4.1E-12 Ry

     new unit-cell volume =    528.58670 a.u.^3 (    78.32847 Ang^3 )
     density =      0.50925 g/cm^3

CELL_PARAMETERS (angstrom)
   2.456577517   0.000535905   0.000000000
  -1.228322457   2.127567081   0.000000000
   0.000000000   0.000000000  14.984808626

ATOMIC_POSITIONS (crystal)
C             0.6669393861        0.3331377107        0.5000000000
C             0.3330606139        0.6668622893        0.5000000000



     Writing config-only to output data dir ./pwscf.save/
     NEW-OLD atomic charge density approx. for the potential

     Check: negative core charge=   -0.000005

     negative rho (up, down):  1.665E-04 0.000E+00
     extrapolated charge    7.95432, renormalised to    8.00000

     total cpu time spent up to now is       24.7 secs

     Self-consistent Calculation

     iteration #  1     ecut=    40.13 Ry     beta= 0.40
     Davidson diagonalization with overlap
     ethr =  1.00E-06,  avg # of iterations =  3.6

     negative rho (up, down):  1.711E-04 0.000E+00

     total cpu time spent up to now is       25.9 secs

     total energy              =     -36.23066025 Ry
     estimated scf accuracy    <       0.00045592 Ry

     iteration #  2     ecut=    40.13 Ry     beta= 0.40
     Davidson diagonalization with overlap
     ethr =  5.70E-06,  avg # of iterations =  3.0

     negative rho (up, down):  1.699E-04 0.000E+00

     total cpu time spent up to now is       27.1 secs

     total energy              =     -36.23145926 Ry
     estimated scf accuracy    <       0.00012035 Ry

     iteration #  3     ecut=    40.13 Ry     beta= 0.40
     Davidson diagonalization with overlap
     ethr =  1.50E-06,  avg # of iterations =  1.0

     negative rho (up, down):  1.679E-04 0.000E+00

     total cpu time spent up to now is       27.8 secs

     total energy              =     -36.23142671 Ry
     estimated scf accuracy    <       0.00005179 Ry

     iteration #  4     ecut=    40.13 Ry     beta= 0.40
     Davidson diagonalization with overlap
     ethr =  6.47E-07,  avg # of iterations =  2.0

     negative rho (up, down):  1.679E-04 0.000E+00

     total cpu time spent up to now is       28.7 secs

     total energy              =     -36.23143928 Ry
     estimated scf accuracy    <       0.00000126 Ry

     iteration #  5     ecut=    40.13 Ry     beta= 0.40
     Davidson diagonalization with overlap
     ethr =  1.58E-08,  avg # of iterations =  1.9

     negative rho (up, down):  1.681E-04 0.000E+00

     total cpu time spent up to now is       29.6 secs

     total energy              =     -36.23143881 Ry
     estimated scf accuracy    <       0.00000081 Ry

     iteration #  6     ecut=    40.13 Ry     beta= 0.40
     Davidson diagonalization with overlap
     ethr =  1.01E-08,  avg # of iterations =  2.1

     negative rho (up, down):  1.680E-04 0.000E+00

     total cpu time spent up to now is       30.7 secs

     total energy              =     -36.23143901 Ry
     estimated scf accuracy    <       0.00000028 Ry

     iteration #  7     ecut=    40.13 Ry     beta= 0.40
     Davidson diagonalization with overlap
     ethr =  3.51E-09,  avg # of iterations =  2.0

     negative rho (up, down):  1.680E-04 0.000E+00

     total cpu time spent up to now is       31.5 secs

     total energy              =     -36.23143903 Ry
     estimated scf accuracy    <       0.00000002 Ry

     iteration #  8     ecut=    40.13 Ry     beta= 0.40
     Davidson diagonalization with overlap
     ethr =  2.90E-10,  avg # of iterations =  2.2

     negative rho (up, down):  1.680E-04 0.000E+00

     total cpu time spent up to now is       32.3 secs

     total energy              =     -36.23143903 Ry
     estimated scf accuracy    <          5.0E-09 Ry

     iteration #  9     ecut=    40.13 Ry     beta= 0.40
     Davidson diagonalization with overlap
     ethr =  6.31E-11,  avg # of iterations =  2.0

     negative rho (up, down):  1.680E-04 0.000E+00

     total cpu time spent up to now is       33.3 secs

     total energy              =     -36.23143903 Ry
     estimated scf accuracy    <          1.8E-11 Ry

     iteration # 10     ecut=    40.13 Ry     beta= 0.40
     Davidson diagonalization with overlap
     ethr =  2.19E-13,  avg # of iterations =  4.0

     negative rho (up, down):  1.680E-04 0.000E+00

     total cpu time spent up to now is       34.8 secs

     total energy              =     -36.23143903 Ry
     estimated scf accuracy    <          1.6E-11 Ry

     iteration # 11     ecut=    40.13 Ry     beta= 0.40
     Davidson diagonalization with overlap
     ethr =  1.97E-13,  avg # of iterations =  2.0

     negative rho (up, down):  1.680E-04 0.000E+00

     total cpu time spent up to now is       35.9 secs

     End of self-consistent calculation

     Number of k-points >= 100: set verbosity='high' to print the bands.

     highest occupied level (ev):    -1.9845

!    total energy              =     -36.23143903 Ry

     total all-electron energy =      -151.789495 Ry
     estimated scf accuracy    <          1.0E-12 Ry

     The total energy is the sum of the following terms:
     one-electron contribution =    -157.74692736 Ry
     hartree contribution      =      80.47217245 Ry
     xc contribution           =      -9.17425629 Ry
     ewald contribution        =      61.99867999 Ry
     one-center paw contrib.   =     -11.78110783 Ry

     convergence has been achieved in  11 iterations

     negative rho (up, down):  1.680E-04 0.000E+00

     Forces acting on atoms (cartesian axes, Ry/au):

     atom    1 type  1   force =    -0.00477148    0.00226077    0.00000000
     atom    2 type  1   force =     0.00477148   -0.00226077    0.00000000

     Total force =     0.007467     Total SCF correction =     0.000000


     Computing stress (Cartesian axis) and pressure


     negative rho (up, down):  1.680E-04 0.000E+00
          total   stress  (Ry/bohr**3)                   (kbar)     P=        0.55
   0.00000934   0.00000526   0.00000000            1.37        0.77        0.00
   0.00000526   0.00001389   0.00000000            0.77        2.04        0.00
   0.00000000   0.00000000  -0.00001202            0.00        0.00       -1.77

     Energy error            =      2.9E-05 Ry
     Gradient error          =      4.8E-03 Ry/Bohr
     Cell gradient error     =      2.0E+00 kbar

     number of scf cycles    =   3
     number of bfgs steps    =   2

     enthalpy           old  =     -36.2314102828 Ry
     enthalpy           new  =     -36.2314390282 Ry

     CASE: enthalpy          _new < enthalpy          _old

     new trust radius        =       0.0026204658 bohr
     new conv_thr            =            4.0E-12 Ry

     new unit-cell volume =    528.91832 a.u.^3 (    78.37761 Ang^3 )
     density =      0.50893 g/cm^3

CELL_PARAMETERS (angstrom)
   2.457505924   0.000681966   0.000000000
  -1.228660282   2.128422700   0.000000000
   0.000000000   0.000000000  14.982006651

ATOMIC_POSITIONS (crystal)
C             0.6665698307        0.3334179485        0.5000000000
C             0.3334301693        0.6665820515        0.5000000000



     Writing config-only to output data dir ./pwscf.save/
     NEW-OLD atomic charge density approx. for the potential

     Check: negative core charge=   -0.000005

     negative rho (up, down):  1.673E-04 0.000E+00
     extrapolated charge    8.00502, renormalised to    8.00000

     total cpu time spent up to now is       37.9 secs

     Self-consistent Calculation

     iteration #  1     ecut=    40.13 Ry     beta= 0.40
     Davidson diagonalization with overlap
     ethr =  1.00E-06,  avg # of iterations =  2.7

     negative rho (up, down):  1.668E-04 0.000E+00

     total cpu time spent up to now is       38.9 secs

     total energy              =     -36.23144490 Ry
     estimated scf accuracy    <       0.00000884 Ry

     iteration #  2     ecut=    40.13 Ry     beta= 0.40
     Davidson diagonalization with overlap
     ethr =  1.11E-07,  avg # of iterations =  2.9

     negative rho (up, down):  1.670E-04 0.000E+00

     total cpu time spent up to now is       40.3 secs

     total energy              =     -36.23145557 Ry
     estimated scf accuracy    <       0.00000231 Ry

     iteration #  3     ecut=    40.13 Ry     beta= 0.40
     Davidson diagonalization with overlap
     ethr =  2.89E-08,  avg # of iterations =  1.3

     negative rho (up, down):  1.674E-04 0.000E+00

     total cpu time spent up to now is       41.3 secs

     total energy              =     -36.23145510 Ry
     estimated scf accuracy    <       0.00000090 Ry

     iteration #  4     ecut=    40.13 Ry     beta= 0.40
     Davidson diagonalization with overlap
     ethr =  1.13E-08,  avg # of iterations =  2.0

     negative rho (up, down):  1.674E-04 0.000E+00

     total cpu time spent up to now is       42.4 secs

     total energy              =     -36.23145532 Ry
     estimated scf accuracy    <       0.00000004 Ry

     iteration #  5     ecut=    40.13 Ry     beta= 0.40
     Davidson diagonalization with overlap
     ethr =  5.26E-10,  avg # of iterations =  2.4

     negative rho (up, down):  1.674E-04 0.000E+00

     total cpu time spent up to now is       43.3 secs

     total energy              =     -36.23145532 Ry
     estimated scf accuracy    <       0.00000002 Ry

     iteration #  6     ecut=    40.13 Ry     beta= 0.40
     Davidson diagonalization with overlap
     ethr =  2.32E-10,  avg # of iterations =  2.1

     negative rho (up, down):  1.674E-04 0.000E+00

     total cpu time spent up to now is       44.3 secs

     total energy              =     -36.23145533 Ry
     estimated scf accuracy    <          5.1E-09 Ry

     iteration #  7     ecut=    40.13 Ry     beta= 0.40
     Davidson diagonalization with overlap
     ethr =  6.35E-11,  avg # of iterations =  1.6

     negative rho (up, down):  1.674E-04 0.000E+00

     total cpu time spent up to now is       45.1 secs

     total energy              =     -36.23145532 Ry
     estimated scf accuracy    <          6.8E-10 Ry

     iteration #  8     ecut=    40.13 Ry     beta= 0.40
     Davidson diagonalization with overlap
     ethr =  8.56E-12,  avg # of iterations =  2.2

     negative rho (up, down):  1.674E-04 0.000E+00

     total cpu time spent up to now is       46.1 secs

     total energy              =     -36.23145532 Ry
     estimated scf accuracy    <          4.1E-12 Ry

     iteration #  9     ecut=    40.13 Ry     beta= 0.40
     Davidson diagonalization with overlap
     ethr =  1.00E-13,  avg # of iterations =  3.7

     negative rho (up, down):  1.674E-04 0.000E+00

     total cpu time spent up to now is       47.2 secs

     End of self-consistent calculation

     Number of k-points >= 100: set verbosity='high' to print the bands.

     highest occupied level (ev):    -2.0066

!    total energy              =     -36.23145532 Ry

     total all-electron energy =      -151.789511 Ry
     estimated scf accuracy    <          1.6E-12 Ry

     The total energy is the sum of the following terms:
     one-electron contribution =    -157.57741108 Ry
     hartree contribution      =      80.38628785 Ry
     xc contribution           =      -9.17237967 Ry
     ewald contribution        =      61.91307849 Ry
     one-center paw contrib.   =     -11.78103092 Ry

     convergence has been achieved in   9 iterations

     negative rho (up, down):  1.674E-04 0.000E+00

     Forces acting on atoms (cartesian axes, Ry/au):

     atom    1 type  1   force =     0.00074067   -0.00037736    0.00000000
     atom    2 type  1   force =    -0.00074067    0.00037736    0.00000000

     Total force =     0.001176     Total SCF correction =     0.000001


     Computing stress (Cartesian axis) and pressure


     negative rho (up, down):  1.674E-04 0.000E+00
          total   stress  (Ry/bohr**3)                   (kbar)     P=       -0.23
   0.00000406  -0.00000032   0.00000000            0.60       -0.05        0.00
  -0.00000032   0.00000316   0.00000000           -0.05        0.46        0.00
   0.00000000   0.00000000  -0.00001200            0.00        0.00       -1.76

     Energy error            =      1.6E-05 Ry
     Gradient error          =      7.4E-04 Ry/Bohr
     Cell gradient error     =      1.8E+00 kbar

     number of scf cycles    =   4
     number of bfgs steps    =   3

     enthalpy           old  =     -36.2314390282 Ry
     enthalpy           new  =     -36.2314553245 Ry

     CASE: enthalpy          _new < enthalpy          _old

     new trust radius        =       0.0012699114 bohr
     new conv_thr            =            4.0E-12 Ry

     new unit-cell volume =    528.93899 a.u.^3 (    78.38067 Ang^3 )
     density =      0.50891 g/cm^3

CELL_PARAMETERS (angstrom)
   2.457904667   0.000683625   0.000000000
  -1.228858304   2.128747552   0.000000000
   0.000000000   0.000000000  14.977870284

ATOMIC_POSITIONS (crystal)
C             0.6665990901        0.3333863413        0.5000000000
C             0.3334009099        0.6666136587        0.5000000000



     Writing config-only to output data dir ./pwscf.save/
     NEW-OLD atomic charge density approx. for the potential

     Check: negative core charge=   -0.000005

     negative rho (up, down):  1.671E-04 0.000E+00
     extrapolated charge    8.00031, renormalised to    8.00000

     total cpu time spent up to now is       49.8 secs

     Self-consistent Calculation

     iteration #  1     ecut=    40.13 Ry     beta= 0.40
     Davidson diagonalization with overlap
     ethr =  1.00E-06,  avg # of iterations =  2.0

     Threshold (ethr) on eigenvalues was too large:
     Diagonalizing with lowered threshold

     Davidson diagonalization with overlap
     ethr =  1.55E-09,  avg # of iterations =  2.5

     negative rho (up, down):  1.672E-04 0.000E+00

     total cpu time spent up to now is       51.7 secs

     total energy              =     -36.23145763 Ry
     estimated scf accuracy    <       0.00000014 Ry

     iteration #  2     ecut=    40.13 Ry     beta= 0.40
     Davidson diagonalization with overlap
     ethr =  1.75E-09,  avg # of iterations =  2.0

     negative rho (up, down):  1.673E-04 0.000E+00

     total cpu time spent up to now is       52.7 secs

     total energy              =     -36.23145769 Ry
     estimated scf accuracy    <       0.00000001 Ry

     iteration #  3     ecut=    40.13 Ry     beta= 0.40
     Davidson diagonalization with overlap
     ethr =  1.54E-10,  avg # of iterations =  1.2

     negative rho (up, down):  1.674E-04 0.000E+00

     total cpu time spent up to now is       53.5 secs

     total energy              =     -36.23145769 Ry
     estimated scf accuracy    <          3.2E-09 Ry

     iteration #  4     ecut=    40.13 Ry     beta= 0.40
     Davidson diagonalization with overlap
     ethr =  4.00E-11,  avg # of iterations =  2.3

     negative rho (up, down):  1.674E-04 0.000E+00

     total cpu time spent up to now is       54.6 secs

     total energy              =     -36.23145769 Ry
     estimated scf accuracy    <          8.5E-11 Ry

     iteration #  5     ecut=    40.13 Ry     beta= 0.40
     Davidson diagonalization with overlap
     ethr =  1.07E-12,  avg # of iterations =  3.1

     negative rho (up, down):  1.674E-04 0.000E+00

     total cpu time spent up to now is       55.6 secs

     total energy              =     -36.23145769 Ry
     estimated scf accuracy    <          1.7E-11 Ry

     iteration #  6     ecut=    40.13 Ry     beta= 0.40
     Davidson diagonalization with overlap
     ethr =  2.17E-13,  avg # of iterations =  2.2

     negative rho (up, down):  1.674E-04 0.000E+00

     total cpu time spent up to now is       56.7 secs

     End of self-consistent calculation

     Number of k-points >= 100: set verbosity='high' to print the bands.

     highest occupied level (ev):    -2.0060

!    total energy              =     -36.23145769 Ry

     total all-electron energy =      -151.789513 Ry
     estimated scf accuracy    <          7.3E-13 Ry

     The total energy is the sum of the following terms:
     one-electron contribution =    -157.47076215 Ry
     hartree contribution      =      80.33267732 Ry
     xc contribution           =      -9.17165183 Ry
     ewald contribution        =      61.85927979 Ry
     one-center paw contrib.   =     -11.78100082 Ry

     convergence has been achieved in   6 iterations

     negative rho (up, down):  1.674E-04 0.000E+00

     Forces acting on atoms (cartesian axes, Ry/au):

     atom    1 type  1   force =     0.00025660   -0.00007915    0.00000000
     atom    2 type  1   force =    -0.00025660    0.00007915    0.00000000

     Total force =     0.000380     Total SCF correction =     0.000001


     Computing stress (Cartesian axis) and pressure


     negative rho (up, down):  1.674E-04 0.000E+00
          total   stress  (Ry/bohr**3)                   (kbar)     P=       -0.53
   0.00000066   0.00000009   0.00000000            0.10        0.01        0.00
   0.00000009   0.00000040   0.00000000            0.01        0.06        0.00
   0.00000000   0.00000000  -0.00001196            0.00        0.00       -1.76

     Energy error            =      2.4E-06 Ry
     Gradient error          =      2.6E-04 Ry/Bohr
     Cell gradient error     =      1.8E+00 kbar

     number of scf cycles    =   5
     number of bfgs steps    =   4

     enthalpy           old  =     -36.2314553245 Ry
     enthalpy           new  =     -36.2314576869 Ry

     CASE: enthalpy          _new < enthalpy          _old

     new trust radius        =       0.0013973156 bohr
     new conv_thr            =            4.0E-12 Ry

     new unit-cell volume =    528.83774 a.u.^3 (    78.36567 Ang^3 )
     density =      0.50900 g/cm^3

CELL_PARAMETERS (angstrom)
   2.458048563   0.000701722   0.000000000
  -1.228914609   2.128853121   0.000000000
   0.000000000   0.000000000  14.973320280

ATOMIC_POSITIONS (crystal)
C             0.6666155512        0.3333773992        0.5000000000
C             0.3333844488        0.6666226008        0.5000000000



     Writing config-only to output data dir ./pwscf.save/
     NEW-OLD atomic charge density approx. for the potential

     Check: negative core charge=   -0.000005

     negative rho (up, down):  1.672E-04 0.000E+00
     extrapolated charge    7.99847, renormalised to    8.00000

     total cpu time spent up to now is       59.6 secs

     Self-consistent Calculation

     iteration #  1     ecut=    40.13 Ry     beta= 0.40
     Davidson diagonalization with overlap
     ethr =  1.00E-06,  avg # of iterations =  2.0

     Threshold (ethr) on eigenvalues was too large:
     Diagonalizing with lowered threshold

     Davidson diagonalization with overlap
     ethr =  4.26E-09,  avg # of iterations =  1.0

     negative rho (up, down):  1.675E-04 0.000E+00

     total cpu time spent up to now is       61.7 secs

     total energy              =     -36.23145882 Ry
     estimated scf accuracy    <       0.00000035 Ry

     iteration #  2     ecut=    40.13 Ry     beta= 0.40
     Davidson diagonalization with overlap
     ethr =  4.39E-09,  avg # of iterations =  3.0

     negative rho (up, down):  1.675E-04 0.000E+00

     total cpu time spent up to now is       62.9 secs

     total energy              =     -36.23145968 Ry
     estimated scf accuracy    <       0.00000020 Ry

     iteration #  3     ecut=    40.13 Ry     beta= 0.40
     Davidson diagonalization with overlap
     ethr =  2.48E-09,  avg # of iterations =  1.0

     negative rho (up, down):  1.676E-04 0.000E+00

     total cpu time spent up to now is       63.7 secs

     total energy              =     -36.23145961 Ry
     estimated scf accuracy    <       0.00000010 Ry

     iteration #  4     ecut=    40.13 Ry     beta= 0.40
     Davidson diagonalization with overlap
     ethr =  1.20E-09,  avg # of iterations =  2.0

     negative rho (up, down):  1.676E-04 0.000E+00

     total cpu time spent up to now is       65.0 secs

     total energy              =     -36.23145964 Ry
     estimated scf accuracy    <          5.9E-09 Ry

     iteration #  5     ecut=    40.13 Ry     beta= 0.40
     Davidson diagonalization with overlap
     ethr =  7.36E-11,  avg # of iterations =  1.4

     negative rho (up, down):  1.676E-04 0.000E+00

     total cpu time spent up to now is       65.8 secs

     total energy              =     -36.23145964 Ry
     estimated scf accuracy    <          1.5E-09 Ry

     iteration #  6     ecut=    40.13 Ry     beta= 0.40
     Davidson diagonalization with overlap
     ethr =  1.92E-11,  avg # of iterations =  1.4

     negative rho (up, down):  1.676E-04 0.000E+00

     total cpu time spent up to now is       66.6 secs

     total energy              =     -36.23145964 Ry
     estimated scf accuracy    <          5.9E-10 Ry

     iteration #  7     ecut=    40.13 Ry     beta= 0.40
     Davidson diagonalization with overlap
     ethr =  7.36E-12,  avg # of iterations =  2.0

     negative rho (up, down):  1.676E-04 0.000E+00

     total cpu time spent up to now is       67.4 secs

     total energy              =     -36.23145964 Ry
     estimated scf accuracy    <          7.3E-12 Ry

     iteration #  8     ecut=    40.13 Ry     beta= 0.40
     Davidson diagonalization with overlap
     ethr =  1.00E-13,  avg # of iterations =  3.2

     negative rho (up, down):  1.676E-04 0.000E+00

     total cpu time spent up to now is       68.5 secs

     total energy              =     -36.23145964 Ry
     estimated scf accuracy    <          7.5E-12 Ry

     iteration #  9     ecut=    40.13 Ry     beta= 0.40
     Davidson diagonalization with overlap
     ethr =  1.00E-13,  avg # of iterations =  2.0

     negative rho (up, down):  1.676E-04 0.000E+00

     total cpu time spent up to now is       69.6 secs

     End of self-consistent calculation

     Number of k-points >= 100: set verbosity='high' to print the bands.

     highest occupied level (ev):    -2.0053

!    total energy              =     -36.23145964 Ry

     total all-electron energy =      -151.789515 Ry
     estimated scf accuracy    <          5.0E-13 Ry

     The total energy is the sum of the following terms:
     one-electron contribution =    -157.39138834 Ry
     hartree contribution      =      80.29304365 Ry
     xc contribution           =      -9.17139249 Ry
     ewald contribution        =      61.81926725 Ry
     one-center paw contrib.   =     -11.78098971 Ry

     convergence has been achieved in   9 iterations

     negative rho (up, down):  1.676E-04 0.000E+00

     Forces acting on atoms (cartesian axes, Ry/au):

     atom    1 type  1   force =     0.00004027    0.00000680    0.00000000
     atom    2 type  1   force =    -0.00004027   -0.00000680    0.00000000

     Total force =     0.000058     Total SCF correction =     0.000000


     Computing stress (Cartesian axis) and pressure


     negative rho (up, down):  1.676E-04 0.000E+00
          total   stress  (Ry/bohr**3)                   (kbar)     P=       -0.64
  -0.00000053   0.00000018   0.00000000           -0.08        0.03        0.00
   0.00000018  -0.00000058   0.00000000            0.03       -0.09        0.00
   0.00000000   0.00000000  -0.00001191            0.00        0.00       -1.75

     Energy error            =      2.0E-06 Ry
     Gradient error          =      4.0E-05 Ry/Bohr
     Cell gradient error     =      1.8E+00 kbar

     number of scf cycles    =   6
     number of bfgs steps    =   5

     enthalpy           old  =     -36.2314576869 Ry
     enthalpy           new  =     -36.2314596371 Ry

     CASE: enthalpy          _new < enthalpy          _old

     new trust radius        =       0.0020964096 bohr
     new conv_thr            =            4.0E-12 Ry

     new unit-cell volume =    528.64808 a.u.^3 (    78.33756 Ang^3 )
     density =      0.50919 g/cm^3

CELL_PARAMETERS (angstrom)
   2.458175452   0.000729605   0.000000000
  -1.228953929   2.128936300   0.000000000
   0.000000000   0.000000000  14.966495274

ATOMIC_POSITIONS (crystal)
C             0.6666262297        0.3333653794        0.5000000000
C             0.3333737703        0.6666346206        0.5000000000



     Writing config-only to output data dir ./pwscf.save/
     NEW-OLD atomic charge density approx. for the potential

     Check: negative core charge=   -0.000005

     negative rho (up, down):  1.674E-04 0.000E+00
     extrapolated charge    7.99713, renormalised to    8.00000

     total cpu time spent up to now is       72.1 secs

     Self-consistent Calculation

     iteration #  1     ecut=    40.13 Ry     beta= 0.40
     Davidson diagonalization with overlap
     ethr =  1.00E-06,  avg # of iterations =  2.0

     Threshold (ethr) on eigenvalues was too large:
     Diagonalizing with lowered threshold

     Davidson diagonalization with overlap
     ethr =  1.60E-08,  avg # of iterations =  1.0

     negative rho (up, down):  1.679E-04 0.000E+00

     total cpu time spent up to now is       73.7 secs

     total energy              =     -36.23145952 Ry
     estimated scf accuracy    <       0.00000133 Ry

     iteration #  2     ecut=    40.13 Ry     beta= 0.40
     Davidson diagonalization with overlap
     ethr =  1.66E-08,  avg # of iterations =  3.0

     negative rho (up, down):  1.679E-04 0.000E+00

     total cpu time spent up to now is       74.8 secs

     total energy              =     -36.23146257 Ry
     estimated scf accuracy    <       0.00000064 Ry

     iteration #  3     ecut=    40.13 Ry     beta= 0.40
     Davidson diagonalization with overlap
     ethr =  8.01E-09,  avg # of iterations =  1.0

     negative rho (up, down):  1.679E-04 0.000E+00

     total cpu time spent up to now is       75.6 secs

     total energy              =     -36.23146236 Ry
     estimated scf accuracy    <       0.00000030 Ry

     iteration #  4     ecut=    40.13 Ry     beta= 0.40
     Davidson diagonalization with overlap
     ethr =  3.80E-09,  avg # of iterations =  2.0

     negative rho (up, down):  1.679E-04 0.000E+00

     total cpu time spent up to now is       77.5 secs

     total energy              =     -36.23146244 Ry
     estimated scf accuracy    <       0.00000002 Ry

     iteration #  5     ecut=    40.13 Ry     beta= 0.40
     Davidson diagonalization with overlap
     ethr =  1.93E-10,  avg # of iterations =  1.2

     negative rho (up, down):  1.679E-04 0.000E+00

     total cpu time spent up to now is       78.6 secs

     total energy              =     -36.23146243 Ry
     estimated scf accuracy    <          3.2E-09 Ry

     iteration #  6     ecut=    40.13 Ry     beta= 0.40
     Davidson diagonalization with overlap
     ethr =  4.05E-11,  avg # of iterations =  2.1

     negative rho (up, down):  1.679E-04 0.000E+00

     total cpu time spent up to now is       81.2 secs

     total energy              =     -36.23146244 Ry
     estimated scf accuracy    <          8.5E-11 Ry

     iteration #  7     ecut=    40.13 Ry     beta= 0.40
     Davidson diagonalization with overlap
     ethr =  1.06E-12,  avg # of iterations =  2.5

     negative rho (up, down):  1.679E-04 0.000E+00

     total cpu time spent up to now is       82.2 secs

     total energy              =     -36.23146243 Ry
     estimated scf accuracy    <          2.6E-11 Ry

     iteration #  8     ecut=    40.13 Ry     beta= 0.40
     Davidson diagonalization with overlap
     ethr =  3.26E-13,  avg # of iterations =  2.0

     negative rho (up, down):  1.679E-04 0.000E+00

     total cpu time spent up to now is       83.8 secs

     End of self-consistent calculation

     Number of k-points >= 100: set verbosity='high' to print the bands.

     highest occupied level (ev):    -2.0042

!    total energy              =     -36.23146244 Ry

     total all-electron energy =      -151.789518 Ry
     estimated scf accuracy    <          8.1E-13 Ry

     The total energy is the sum of the following terms:
     one-electron contribution =    -157.28387612 Ry
     hartree contribution      =      80.23947702 Ry
     xc contribution           =      -9.17116753 Ry
     ewald contribution        =      61.76508389 Ry
     one-center paw contrib.   =     -11.78097969 Ry

     convergence has been achieved in   8 iterations

     negative rho (up, down):  1.679E-04 0.000E+00

     Forces acting on atoms (cartesian axes, Ry/au):

     atom    1 type  1   force =    -0.00012720    0.00012028    0.00000000
     atom    2 type  1   force =     0.00012720   -0.00012028    0.00000000

     Total force =     0.000248     Total SCF correction =     0.000000


     Computing stress (Cartesian axis) and pressure


     negative rho (up, down):  1.679E-04 0.000E+00
          total   stress  (Ry/bohr**3)                   (kbar)     P=       -0.73
  -0.00000160   0.00000017   0.00000000           -0.24        0.03        0.00
   0.00000017  -0.00000138   0.00000000            0.03       -0.20        0.00
   0.00000000   0.00000000  -0.00001183            0.00        0.00       -1.74

     Energy error            =      2.8E-06 Ry
     Gradient error          =      1.3E-04 Ry/Bohr
     Cell gradient error     =      1.7E+00 kbar

     number of scf cycles    =   7
     number of bfgs steps    =   6

     enthalpy           old  =     -36.2314596371 Ry
     enthalpy           new  =     -36.2314624351 Ry

     CASE: enthalpy          _new < enthalpy          _old

     new trust radius        =       0.0031454842 bohr
     new conv_thr            =            4.0E-12 Ry

     new unit-cell volume =    528.33923 a.u.^3 (    78.29180 Ang^3 )
     density =      0.50948 g/cm^3

CELL_PARAMETERS (angstrom)
   2.458305456   0.000766100   0.000000000
  -1.228987347   2.129018082   0.000000000
   0.000000000   0.000000000  14.956257764

ATOMIC_POSITIONS (crystal)
C             0.6666430464        0.3333592776        0.5000000000
C             0.3333569536        0.6666407224        0.5000000000



     Writing config-only to output data dir ./pwscf.save/
     NEW-OLD atomic charge density approx. for the potential

     Check: negative core charge=   -0.000005

     negative rho (up, down):  1.676E-04 0.000E+00
     extrapolated charge    7.99532, renormalised to    8.00000

     total cpu time spent up to now is       86.0 secs

     Self-consistent Calculation

     iteration #  1     ecut=    40.13 Ry     beta= 0.40
     Davidson diagonalization with overlap
     ethr =  1.00E-06,  avg # of iterations =  2.0

     Threshold (ethr) on eigenvalues was too large:
     Diagonalizing with lowered threshold

     Davidson diagonalization with overlap
     ethr =  4.35E-08,  avg # of iterations =  1.0

     negative rho (up, down):  1.684E-04 0.000E+00

     total cpu time spent up to now is       87.6 secs

     total energy              =     -36.23145875 Ry
     estimated scf accuracy    <       0.00000362 Ry

     iteration #  2     ecut=    40.13 Ry     beta= 0.40
     Davidson diagonalization with overlap
     ethr =  4.52E-08,  avg # of iterations =  3.0

     negative rho (up, down):  1.684E-04 0.000E+00

     total cpu time spent up to now is       88.7 secs

     total energy              =     -36.23146687 Ry
     estimated scf accuracy    <       0.00000165 Ry

     iteration #  3     ecut=    40.13 Ry     beta= 0.40
     Davidson diagonalization with overlap
     ethr =  2.07E-08,  avg # of iterations =  1.0

     negative rho (up, down):  1.684E-04 0.000E+00

     total cpu time spent up to now is       89.4 secs

     total energy              =     -36.23146635 Ry
     estimated scf accuracy    <       0.00000078 Ry

     iteration #  4     ecut=    40.13 Ry     beta= 0.40
     Davidson diagonalization with overlap
     ethr =  9.72E-09,  avg # of iterations =  2.0

     negative rho (up, down):  1.684E-04 0.000E+00

     total cpu time spent up to now is       90.5 secs

     total energy              =     -36.23146655 Ry
     estimated scf accuracy    <       0.00000004 Ry

     iteration #  5     ecut=    40.13 Ry     beta= 0.40
     Davidson diagonalization with overlap
     ethr =  4.55E-10,  avg # of iterations =  1.1

     negative rho (up, down):  1.685E-04 0.000E+00

     total cpu time spent up to now is       91.5 secs

     total energy              =     -36.23146654 Ry
     estimated scf accuracy    <          6.8E-09 Ry

     iteration #  6     ecut=    40.13 Ry     beta= 0.40
     Davidson diagonalization with overlap
     ethr =  8.55E-11,  avg # of iterations =  2.6

     negative rho (up, down):  1.685E-04 0.000E+00

     total cpu time spent up to now is       92.5 secs

     total energy              =     -36.23146654 Ry
     estimated scf accuracy    <          4.3E-09 Ry

     iteration #  7     ecut=    40.13 Ry     beta= 0.40
     Davidson diagonalization with overlap
     ethr =  5.32E-11,  avg # of iterations =  2.0

     negative rho (up, down):  1.685E-04 0.000E+00

     total cpu time spent up to now is       93.4 secs

     total energy              =     -36.23146654 Ry
     estimated scf accuracy    <          1.1E-10 Ry

     iteration #  8     ecut=    40.13 Ry     beta= 0.40
     Davidson diagonalization with overlap
     ethr =  1.44E-12,  avg # of iterations =  2.5

     negative rho (up, down):  1.685E-04 0.000E+00

     total cpu time spent up to now is       94.5 secs

     total energy              =     -36.23146654 Ry
     estimated scf accuracy    <          2.2E-11 Ry

     iteration #  9     ecut=    40.13 Ry     beta= 0.40
     Davidson diagonalization with overlap
