
     Program PWSCF v.7.0 starts on 19Feb2022 at 15:42:40 

     This program is part of the open-source Quantum ESPRESSO suite
     for quantum simulation of materials; please cite
         "P. Giannozzi et al., J. Phys.:Condens. Matter 21 395502 (2009);
         "P. Giannozzi et al., J. Phys.:Condens. Matter 29 465901 (2017);
         "P. Giannozzi et al., J. Chem. Phys. 152 154105 (2020);
          URL http://www.quantum-espresso.org", 
     in publications or presentations arising from this work. More details at
     http://www.quantum-espresso.org/quote

     Serial multi-threaded version, running on   64 processor cores
     2017400 MiB available memory on the printing compute node when the environment starts
 
     Waiting for input...
     Reading input from standard input

     Current dimensions of program PWSCF are:
     Max number of different atomic species (ntypx) = 10
     Max number of k-points (npk) =  40000
     Max angular momentum in pseudopotentials (lmaxx) =  4
 
     G-vector sticks info
     --------------------
     sticks:   dense  smooth     PW     G-vecs:    dense   smooth      PW
     Sum        2323    1931    535               237295   180385   26387
 
     Using Slab Decomposition
 


     bravais-lattice index     =           12
     lattice parameter (alat)  =      10.8659  a.u.
     unit-cell volume          =    3779.0136 (a.u.)^3
     number of atoms/cell      =            6
     number of atomic types    =            2
     number of electrons       =        60.00
     number of Kohn-Sham states=           36
     kinetic-energy cutoff     =      50.0000  Ry
     charge density cutoff     =     240.0000  Ry
     scf convergence threshold =      4.0E-10
     mixing beta               =       0.4000
     number of iterations used =            8  plain     mixing
     Exchange-correlation= SLA  PW   PSX  PSC
                           (   1   4  10   8   0   0   0)

     celldm(1)=  10.865925  celldm(2)=   1.029565  celldm(3)=   2.861043
     celldm(4)=  -0.000000  celldm(5)=   0.000000  celldm(6)=   0.000000

     crystal axes: (cart. coord. in units of alat)
               a(1) = (   1.000000   0.000000   0.000000 )  
               a(2) = (  -0.000000   1.029565   0.000000 )  
               a(3) = (   0.000000   0.000000   2.861043 )  

     reciprocal axes: (cart. coord. in units 2 pi/alat)
               b(1) = (  1.000000  0.000000  0.000000 )  
               b(2) = (  0.000000  0.971284  0.000000 )  
               b(3) = (  0.000000  0.000000  0.349523 )  


     PseudoPot. # 1 for Pd read from file:
     ../SSSP/Pd_ONCV_PBEsol-1.0.upf
     MD5 check sum: 252ac589d0cc8911379e98310815452c
     Pseudo is Norm-conserving, Zval = 18.0
     Generated using ONCVPSP code by D. R. Hamann
     Using radial grid of 1394 points,  6 beta functions with: 
                l(1) =   0
                l(2) =   0
                l(3) =   1
                l(4) =   1
                l(5) =   2
                l(6) =   2

     PseudoPot. # 2 for Se read from file:
     ../SSSP/se_pbesol_v1.uspp.F.UPF
     MD5 check sum: a3b4745ad650bb7419ce2e0d5f176975
     Pseudo is Ultrasoft + core correction, Zval =  6.0
     Generated by new atomic code, or converted to UPF format
     Using radial grid of  877 points,  6 beta functions with: 
                l(1) =   0
                l(2) =   0
                l(3) =   1
                l(4) =   1
                l(5) =   2
                l(6) =   2
     Q(r) pseudized with  8 coefficients,  rinner =    1.300   1.300   1.300
                                                       1.300   1.300

     atomic species   valence    mass     pseudopotential
        Pd            18.00   106.42000     Pd( 1.00)
        Se             6.00    78.97100     Se( 1.00)

      4 Sym. Ops., with inversion, found ( 2 have fractional translation)


                                    s                        frac. trans.

      isym =  1     identity                                     

 cryst.   s( 1) = (     1          0          0      )
                  (     0          1          0      )
                  (     0          0          1      )

 cart.    s( 1) = (  1.0000000  0.0000000  0.0000000 )
                  (  0.0000000  1.0000000  0.0000000 )
                  (  0.0000000  0.0000000  1.0000000 )


      isym =  2     180 deg rotation - cart. axis [0,1,0]        

 cryst.   s( 2) = (    -1          0          0      )    f =(  0.0000000 )
                  (     0          1          0      )       (  0.5000000 )
                  (     0          0         -1      )       (  0.5000000 )

 cart.    s( 2) = ( -1.0000000 -0.0000000  0.0000000 )    f =( -0.0000000 )
                  (  0.0000000  1.0000000  0.0000000 )       (  0.5147826 )
                  (  0.0000000  0.0000000 -1.0000000 )       (  1.4305217 )


      isym =  3     inversion                                    

 cryst.   s( 3) = (    -1          0          0      )
                  (     0         -1          0      )
                  (     0          0         -1      )

 cart.    s( 3) = ( -1.0000000  0.0000000  0.0000000 )
                  (  0.0000000 -1.0000000  0.0000000 )
                  (  0.0000000  0.0000000 -1.0000000 )


      isym =  4     inv. 180 deg rotation - cart. axis [0,1,0]   

 cryst.   s( 4) = (     1          0          0      )    f =(  0.0000000 )
                  (     0         -1          0      )       (  0.5000000 )
                  (     0          0          1      )       (  0.5000000 )

 cart.    s( 4) = (  1.0000000  0.0000000  0.0000000 )    f =( -0.0000000 )
                  (  0.0000000 -1.0000000  0.0000000 )       (  0.5147826 )
                  (  0.0000000  0.0000000  1.0000000 )       (  1.4305217 )


     point group C_2h (2/m) 
     there are  4 classes
     the character table:

       E     C2    i     s_h  
A_g    1.00  1.00  1.00  1.00
B_g    1.00 -1.00  1.00 -1.00
A_u    1.00  1.00 -1.00 -1.00
B_u    1.00 -1.00 -1.00  1.00

     the symmetry operations in each class and the name of the first element:

     E        1
          identity                                               
     C2       2
          180 deg rotation - cart. axis [0,1,0]                  
     i        3
          inversion                                              
     s_h      4
          inv. 180 deg rotation - cart. axis [0,1,0]             

   Cartesian axes

     site n.     atom                  positions (alat units)
         1           Pd  tau(   1) = (  -0.0000000   0.5147826   1.4305217  )
         2           Pd  tau(   2) = (   0.0000000   0.0000000   0.0000000  )
         3           Se  tau(   3) = (   0.9548138   0.1139816   1.7734460  )
         4           Se  tau(   4) = (   0.0451862   0.6287642   2.5181192  )
         5           Se  tau(   5) = (   0.0451862   0.9155836   1.0875975  )
         6           Se  tau(   6) = (   0.9548138   0.4008010   0.3429243  )

   Crystallographic axes

     site n.     atom                  positions (cryst. coord.)
         1           Pd  tau(   1) = (  0.0000000  0.5000000  0.5000000  )
         2           Pd  tau(   2) = (  0.0000000  0.0000000  0.0000000  )
         3           Se  tau(   3) = (  0.9548138  0.1107085  0.6198599  )
         4           Se  tau(   4) = (  0.0451862  0.6107085  0.8801401  )
         5           Se  tau(   5) = (  0.0451862  0.8892915  0.3801401  )
         6           Se  tau(   6) = (  0.9548138  0.3892915  0.1198599  )

     number of k points=    25  Marzari-Vanderbilt smearing, width (Ry)=  0.0147
                       cart. coord. in units 2pi/alat
        k(    1) = (   0.0500000   0.0485642  -0.1747614), wk =   0.0800000
        k(    2) = (   0.0500000   0.1456926  -0.1747614), wk =   0.0800000
        k(    3) = (   0.0500000   0.2428209  -0.1747614), wk =   0.0800000
        k(    4) = (   0.0500000   0.3399493  -0.1747614), wk =   0.0800000
        k(    5) = (   0.0500000   0.4370777  -0.1747614), wk =   0.0800000
        k(    6) = (   0.1500000   0.0485642  -0.1747614), wk =   0.0800000
        k(    7) = (   0.1500000   0.1456926  -0.1747614), wk =   0.0800000
        k(    8) = (   0.1500000   0.2428209  -0.1747614), wk =   0.0800000
        k(    9) = (   0.1500000   0.3399493  -0.1747614), wk =   0.0800000
        k(   10) = (   0.1500000   0.4370777  -0.1747614), wk =   0.0800000
        k(   11) = (   0.2500000   0.0485642  -0.1747614), wk =   0.0800000
        k(   12) = (   0.2500000   0.1456926  -0.1747614), wk =   0.0800000
        k(   13) = (   0.2500000   0.2428209  -0.1747614), wk =   0.0800000
        k(   14) = (   0.2500000   0.3399493  -0.1747614), wk =   0.0800000
        k(   15) = (   0.2500000   0.4370777  -0.1747614), wk =   0.0800000
        k(   16) = (   0.3500000   0.0485642  -0.1747614), wk =   0.0800000
        k(   17) = (   0.3500000   0.1456926  -0.1747614), wk =   0.0800000
        k(   18) = (   0.3500000   0.2428209  -0.1747614), wk =   0.0800000
        k(   19) = (   0.3500000   0.3399493  -0.1747614), wk =   0.0800000
        k(   20) = (   0.3500000   0.4370777  -0.1747614), wk =   0.0800000
        k(   21) = (   0.4500000   0.0485642  -0.1747614), wk =   0.0800000
        k(   22) = (   0.4500000   0.1456926  -0.1747614), wk =   0.0800000
        k(   23) = (   0.4500000   0.2428209  -0.1747614), wk =   0.0800000
        k(   24) = (   0.4500000   0.3399493  -0.1747614), wk =   0.0800000
        k(   25) = (   0.4500000   0.4370777  -0.1747614), wk =   0.0800000

                       cryst. coord.
        k(    1) = (   0.0500000   0.0500000  -0.5000000), wk =   0.0800000
        k(    2) = (   0.0500000   0.1500000  -0.5000000), wk =   0.0800000
        k(    3) = (   0.0500000   0.2500000  -0.5000000), wk =   0.0800000
        k(    4) = (   0.0500000   0.3500000  -0.5000000), wk =   0.0800000
        k(    5) = (   0.0500000   0.4500000  -0.5000000), wk =   0.0800000
        k(    6) = (   0.1500000   0.0500000  -0.5000000), wk =   0.0800000
        k(    7) = (   0.1500000   0.1500000  -0.5000000), wk =   0.0800000
        k(    8) = (   0.1500000   0.2500000  -0.5000000), wk =   0.0800000
        k(    9) = (   0.1500000   0.3500000  -0.5000000), wk =   0.0800000
        k(   10) = (   0.1500000   0.4500000  -0.5000000), wk =   0.0800000
        k(   11) = (   0.2500000   0.0500000  -0.5000000), wk =   0.0800000
        k(   12) = (   0.2500000   0.1500000  -0.5000000), wk =   0.0800000
        k(   13) = (   0.2500000   0.2500000  -0.5000000), wk =   0.0800000
        k(   14) = (   0.2500000   0.3500000  -0.5000000), wk =   0.0800000
        k(   15) = (   0.2500000   0.4500000  -0.5000000), wk =   0.0800000
        k(   16) = (   0.3500000   0.0500000  -0.5000000), wk =   0.0800000
        k(   17) = (   0.3500000   0.1500000  -0.5000000), wk =   0.0800000
        k(   18) = (   0.3500000   0.2500000  -0.5000000), wk =   0.0800000
        k(   19) = (   0.3500000   0.3500000  -0.5000000), wk =   0.0800000
        k(   20) = (   0.3500000   0.4500000  -0.5000000), wk =   0.0800000
        k(   21) = (   0.4500000   0.0500000  -0.5000000), wk =   0.0800000
        k(   22) = (   0.4500000   0.1500000  -0.5000000), wk =   0.0800000
        k(   23) = (   0.4500000   0.2500000  -0.5000000), wk =   0.0800000
        k(   24) = (   0.4500000   0.3500000  -0.5000000), wk =   0.0800000
        k(   25) = (   0.4500000   0.4500000  -0.5000000), wk =   0.0800000

     Dense  grid:   237295 G-vectors     FFT dimensions: (  54,  60, 160)

     Smooth grid:   180385 G-vectors     FFT dimensions: (  50,  54, 144)

     Dynamical RAM for                 wfc:      12.39 MB

     Dynamical RAM for     wfc (w. buffer):     322.24 MB

     Dynamical RAM for           str. fact:       7.24 MB

     Dynamical RAM for           local pot:       0.00 MB

     Dynamical RAM for          nlocal pot:      37.18 MB

     Dynamical RAM for                qrad:       2.49 MB

     Dynamical RAM for          rho,v,vnew:      22.73 MB

     Dynamical RAM for               rhoin:       7.58 MB

     Dynamical RAM for            rho*nmix:      57.93 MB

     Dynamical RAM for           G-vectors:      14.95 MB

     Dynamical RAM for          h,s,v(r/c):       0.24 MB

     Dynamical RAM for          <psi|beta>:       0.06 MB

     Dynamical RAM for                 psi:      24.79 MB

     Dynamical RAM for                hpsi:      24.79 MB

     Dynamical RAM for                spsi:      24.79 MB

     Dynamical RAM for      wfcinit/wfcrot:      24.82 MB

     Dynamical RAM for           addusdens:     687.96 MB

     Dynamical RAM for          addusforce:     711.51 MB

     Dynamical RAM for         addusstress:     727.79 MB

     Estimated static dynamical RAM per process >     445.04 MB

     Estimated max dynamical RAM per process >       1.20 GB
 ----2D----2D----2D----2D----2D----2D----2D----2D----2D----2D----2D----2D
  The code is running with the 2D cutoff
  Please refer to:
  Sohier, T., Calandra, M., & Mauri, F. (2017), 
  Density functional perturbation theory for gated two-dimensional heterostructu
 res:
  Theoretical developments and application to flexural phonons in graphene.
  Physical Review B, 96(7), 75448. https://doi.org/10.1103/PhysRevB.96.075448
 ----2D----2D----2D----2D----2D----2D----2D----2D----2D----2D----2D----2D

     Initial potential from superposition of free atoms

     starting charge      59.9991, renormalised to      60.0000
     Starting wfcs are   36 randomized atomic wfcs

     total cpu time spent up to now is        7.1 secs

     Self-consistent Calculation

     iteration #  1     ecut=    50.00 Ry     beta= 0.40
     Davidson diagonalization with overlap

---- Real-time Memory Report at c_bands before calling an iterative solver
           874 MiB given to the printing process from OS
             0 MiB allocation reported by mallinfo(arena+hblkhd)
       2016721 MiB available memory on the node where the printing process lives
------------------
     ethr =  1.00E-02,  avg # of iterations =  2.0

     total cpu time spent up to now is       19.6 secs

     total energy              =    -696.90005081 Ry
     estimated scf accuracy    <       2.21130204 Ry

     iteration #  2     ecut=    50.00 Ry     beta= 0.40
     Davidson diagonalization with overlap

---- Real-time Memory Report at c_bands before calling an iterative solver
          1426 MiB given to the printing process from OS
             0 MiB allocation reported by mallinfo(arena+hblkhd)
       2016716 MiB available memory on the node where the printing process lives
------------------
     ethr =  3.69E-03,  avg # of iterations =  2.0

     total cpu time spent up to now is       32.6 secs

     total energy              =    -696.81757194 Ry
     estimated scf accuracy    <      14.22651237 Ry

     iteration #  3     ecut=    50.00 Ry     beta= 0.40
     Davidson diagonalization with overlap

---- Real-time Memory Report at c_bands before calling an iterative solver
          1495 MiB given to the printing process from OS
             0 MiB allocation reported by mallinfo(arena+hblkhd)
       2016664 MiB available memory on the node where the printing process lives
------------------
     ethr =  3.69E-03,  avg # of iterations =  2.0

     total cpu time spent up to now is       45.5 secs

     total energy              =    -697.57806453 Ry
     estimated scf accuracy    <       0.46365408 Ry

     iteration #  4     ecut=    50.00 Ry     beta= 0.40
     Davidson diagonalization with overlap

---- Real-time Memory Report at c_bands before calling an iterative solver
          1495 MiB given to the printing process from OS
             0 MiB allocation reported by mallinfo(arena+hblkhd)
       2016673 MiB available memory on the node where the printing process lives
------------------
     ethr =  7.73E-04,  avg # of iterations =  1.0

     total cpu time spent up to now is       56.5 secs

     total energy              =    -697.58211119 Ry
     estimated scf accuracy    <       0.08546762 Ry

     iteration #  5     ecut=    50.00 Ry     beta= 0.40
     Davidson diagonalization with overlap

---- Real-time Memory Report at c_bands before calling an iterative solver
          1495 MiB given to the printing process from OS
             0 MiB allocation reported by mallinfo(arena+hblkhd)
       2016668 MiB available memory on the node where the printing process lives
------------------
     ethr =  1.42E-04,  avg # of iterations =  1.0

     total cpu time spent up to now is       67.6 secs

     total energy              =    -697.57909411 Ry
     estimated scf accuracy    <       0.04279412 Ry

     iteration #  6     ecut=    50.00 Ry     beta= 0.40
     Davidson diagonalization with overlap

---- Real-time Memory Report at c_bands before calling an iterative solver
          1501 MiB given to the printing process from OS
             0 MiB allocation reported by mallinfo(arena+hblkhd)
       2016667 MiB available memory on the node where the printing process lives
------------------
     ethr =  7.13E-05,  avg # of iterations =  1.4

     total cpu time spent up to now is       79.0 secs

     total energy              =    -697.58004790 Ry
     estimated scf accuracy    <       0.13617246 Ry

     iteration #  7     ecut=    50.00 Ry     beta= 0.40
     Davidson diagonalization with overlap

---- Real-time Memory Report at c_bands before calling an iterative solver
          1507 MiB given to the printing process from OS
             0 MiB allocation reported by mallinfo(arena+hblkhd)
       2016663 MiB available memory on the node where the printing process lives
------------------
     ethr =  7.13E-05,  avg # of iterations =  1.0

     total cpu time spent up to now is       87.5 secs

     total energy              =    -697.58699994 Ry
     estimated scf accuracy    <       0.02083753 Ry

     iteration #  8     ecut=    50.00 Ry     beta= 0.40
     Davidson diagonalization with overlap

---- Real-time Memory Report at c_bands before calling an iterative solver
          1510 MiB given to the printing process from OS
             0 MiB allocation reported by mallinfo(arena+hblkhd)
       2016657 MiB available memory on the node where the printing process lives
------------------
     ethr =  3.47E-05,  avg # of iterations =  1.1

     total cpu time spent up to now is       96.0 secs

     total energy              =    -697.58625544 Ry
     estimated scf accuracy    <       0.01051787 Ry

     iteration #  9     ecut=    50.00 Ry     beta= 0.40
     Davidson diagonalization with overlap

---- Real-time Memory Report at c_bands before calling an iterative solver
          1515 MiB given to the printing process from OS
             0 MiB allocation reported by mallinfo(arena+hblkhd)
       2016651 MiB available memory on the node where the printing process lives
------------------
     ethr =  1.75E-05,  avg # of iterations =  1.6

     total cpu time spent up to now is      106.1 secs

     total energy              =    -697.58694031 Ry
     estimated scf accuracy    <       0.00704350 Ry

     iteration # 10     ecut=    50.00 Ry     beta= 0.40
     Davidson diagonalization with overlap

---- Real-time Memory Report at c_bands before calling an iterative solver
          1520 MiB given to the printing process from OS
             0 MiB allocation reported by mallinfo(arena+hblkhd)
       2016631 MiB available memory on the node where the printing process lives
------------------
     ethr =  1.17E-05,  avg # of iterations =  1.0

     total cpu time spent up to now is      115.6 secs

     total energy              =    -697.58696802 Ry
     estimated scf accuracy    <       0.00076870 Ry

     iteration # 11     ecut=    50.00 Ry     beta= 0.40
     Davidson diagonalization with overlap

---- Real-time Memory Report at c_bands before calling an iterative solver
          1521 MiB given to the printing process from OS
             0 MiB allocation reported by mallinfo(arena+hblkhd)
       2016633 MiB available memory on the node where the printing process lives
------------------
     ethr =  1.28E-06,  avg # of iterations =  4.1

     total cpu time spent up to now is      126.2 secs

     total energy              =    -697.58701541 Ry
     estimated scf accuracy    <       0.00003914 Ry

     iteration # 12     ecut=    50.00 Ry     beta= 0.40
     Davidson diagonalization with overlap

---- Real-time Memory Report at c_bands before calling an iterative solver
          1521 MiB given to the printing process from OS
             0 MiB allocation reported by mallinfo(arena+hblkhd)
       2016637 MiB available memory on the node where the printing process lives
------------------
     ethr =  6.52E-08,  avg # of iterations =  1.7

     total cpu time spent up to now is      135.8 secs

     total energy              =    -697.58701813 Ry
     estimated scf accuracy    <       0.00000268 Ry

     iteration # 13     ecut=    50.00 Ry     beta= 0.40
     Davidson diagonalization with overlap

---- Real-time Memory Report at c_bands before calling an iterative solver
          1523 MiB given to the printing process from OS
             0 MiB allocation reported by mallinfo(arena+hblkhd)
       2016633 MiB available memory on the node where the printing process lives
------------------
     ethr =  4.47E-09,  avg # of iterations =  6.0

     total cpu time spent up to now is      153.6 secs

     total energy              =    -697.58702049 Ry
     estimated scf accuracy    <       0.00000031 Ry

     iteration # 14     ecut=    50.00 Ry     beta= 0.40
     Davidson diagonalization with overlap

---- Real-time Memory Report at c_bands before calling an iterative solver
          1580 MiB given to the printing process from OS
             0 MiB allocation reported by mallinfo(arena+hblkhd)
       2016582 MiB available memory on the node where the printing process lives
------------------
     ethr =  5.09E-10,  avg # of iterations =  3.0

     total cpu time spent up to now is      164.2 secs

     total energy              =    -697.58702052 Ry
     estimated scf accuracy    <       0.00000069 Ry

     iteration # 15     ecut=    50.00 Ry     beta= 0.40
     Davidson diagonalization with overlap

---- Real-time Memory Report at c_bands before calling an iterative solver
          1580 MiB given to the printing process from OS
             0 MiB allocation reported by mallinfo(arena+hblkhd)
       2016585 MiB available memory on the node where the printing process lives
------------------
     ethr =  5.09E-10,  avg # of iterations =  1.0

     total cpu time spent up to now is      174.4 secs

     total energy              =    -697.58702054 Ry
     estimated scf accuracy    <       0.00000007 Ry

     iteration # 16     ecut=    50.00 Ry     beta= 0.40
     Davidson diagonalization with overlap

---- Real-time Memory Report at c_bands before calling an iterative solver
          1580 MiB given to the printing process from OS
             0 MiB allocation reported by mallinfo(arena+hblkhd)
       2016583 MiB available memory on the node where the printing process lives
------------------
     ethr =  1.20E-10,  avg # of iterations =  2.2

     total cpu time spent up to now is      186.2 secs

     total energy              =    -697.58702055 Ry
     estimated scf accuracy    <          2.3E-09 Ry

     iteration # 17     ecut=    50.00 Ry     beta= 0.40
     Davidson diagonalization with overlap

---- Real-time Memory Report at c_bands before calling an iterative solver
          1580 MiB given to the printing process from OS
             0 MiB allocation reported by mallinfo(arena+hblkhd)
       2016585 MiB available memory on the node where the printing process lives
------------------
     ethr =  3.79E-12,  avg # of iterations =  6.5

     total cpu time spent up to now is      210.9 secs

     total energy              =    -697.58702055 Ry
     estimated scf accuracy    <          1.3E-09 Ry

     iteration # 18     ecut=    50.00 Ry     beta= 0.40
     Davidson diagonalization with overlap

---- Real-time Memory Report at c_bands before calling an iterative solver
          1580 MiB given to the printing process from OS
             0 MiB allocation reported by mallinfo(arena+hblkhd)
       2016585 MiB available memory on the node where the printing process lives
------------------
     ethr =  2.10E-12,  avg # of iterations =  1.2

     total cpu time spent up to now is      222.0 secs

     End of self-consistent calculation

          k = 0.0500 0.0486-0.1748 ( 22594 PWs)   bands (ev):

   -86.1850 -86.1850 -52.3998 -52.3998 -51.8052 -51.8052 -51.7733 -51.7733
   -14.6570 -14.6570 -14.5714 -14.5714  -5.6983  -5.6973  -4.9786  -4.9782
    -4.7006  -4.7001  -4.5979  -4.5963  -4.2383  -4.2381  -4.1049  -4.1047
    -3.9449  -3.9438  -3.8457  -3.8388  -3.8021  -3.7933  -3.5333  -3.5297
    -3.3679  -3.3667  -1.2892  -1.2799

     occupation numbers 
     1.0000   1.0000   1.0000   1.0000   1.0000   1.0000   1.0000   1.0000
     1.0000   1.0000   1.0000   1.0000   1.0000   1.0000   1.0000   1.0000
     1.0000   1.0000   1.0000   1.0000   1.0086   1.0086   1.0512   1.0514
     1.0506   1.0493   0.8306   0.8080   0.6777   0.6449   0.0331   0.0311
     0.0010   0.0009   0.0000   0.0000

          k = 0.0500 0.1457-0.1748 ( 22578 PWs)   bands (ev):

   -86.1850 -86.1850 -52.3998 -52.3998 -51.8052 -51.8052 -51.7733 -51.7733
   -14.6533 -14.6533 -14.5736 -14.5735  -5.6847  -5.6838  -4.9818  -4.9804
    -4.7019  -4.7015  -4.5923  -4.5915  -4.2627  -4.2625  -4.1201  -4.1195
    -3.9425  -3.9421  -3.8476  -3.8400  -3.7883  -3.7794  -3.5390  -3.5367
    -3.4542  -3.4516  -1.1503  -1.1420

     occupation numbers 
     1.0000   1.0000   1.0000   1.0000   1.0000   1.0000   1.0000   1.0000
     1.0000   1.0000   1.0000   1.0000   1.0000   1.0000   1.0000   1.0000
     1.0000   1.0000   1.0000   1.0000   1.0055   1.0055   1.0442   1.0445
     1.0478   1.0473   0.8366   0.8119   0.6259   0.5925   0.0365   0.0351
     0.0072   0.0068   0.0000   0.0000

          k = 0.0500 0.2428-0.1748 ( 22576 PWs)   bands (ev):

   -86.1850 -86.1850 -52.3998 -52.3998 -51.8052 -51.8052 -51.7733 -51.7733
   -14.6469 -14.6468 -14.5776 -14.5776  -5.6622  -5.6616  -4.9940  -4.9920
    -4.7054  -4.7050  -4.5733  -4.5728  -4.2884  -4.2879  -4.1385  -4.1381
    -3.9504  -3.9496  -3.8528  -3.8471  -3.7558  -3.7487  -3.6083  -3.6065
    -3.5378  -3.5326  -0.9244  -0.9180

     occupation numbers 
     1.0000   1.0000   1.0000   1.0000   1.0000   1.0000   1.0000   1.0000
     1.0000   1.0000   1.0000   1.0000   1.0000   1.0000   1.0000   1.0000
     1.0000   1.0000   1.0000   1.0000   1.0033   1.0034   1.0362   1.0364
     1.0563   1.0555   0.8531   0.8352   0.5042   0.4782   0.1067   0.1040
     0.0358   0.0327   0.0000   0.0000

          k = 0.0500 0.3399-0.1748 ( 22560 PWs)   bands (ev):

   -86.1850 -86.1850 -52.3998 -52.3998 -51.8052 -51.8052 -51.7733 -51.7733
   -14.6395 -14.6395 -14.5825 -14.5825  -5.6395  -5.6392  -5.0125  -5.0108
    -4.7103  -4.7099  -4.5504  -4.5497  -4.2798  -4.2790  -4.1521  -4.1518
    -3.9679  -3.9660  -3.8637  -3.8622  -3.7675  -3.7633  -3.7126  -3.7125
    -3.5449  -3.5421  -0.6973  -0.6925

     occupation numbers 
     1.0000   1.0000   1.0000   1.0000   1.0000   1.0000   1.0000   1.0000
     1.0000   1.0000   1.0000   1.0000   1.0000   1.0000   1.0000   1.0000
     1.0000   1.0000   1.0000   1.0000   1.0040   1.0040   1.0309   1.0310
     1.0707   1.0695   0.8858   0.8814   0.5476   0.5319   0.3532   0.3528
     0.0403   0.0385   0.0000   0.0000

          k = 0.0500 0.4371-0.1748 ( 22516 PWs)   bands (ev):

   -86.1850 -86.1850 -52.3998 -52.3998 -51.8052 -51.8052 -51.7733 -51.7733
   -14.6342 -14.6341 -14.5864 -14.5864  -5.6255  -5.6254  -5.0250  -5.0243
    -4.7136  -4.7134  -4.5434  -4.5432  -4.2229  -4.2225  -4.1583  -4.1581
    -3.9943  -3.9916  -3.9398  -3.9360  -3.8083  -3.8067  -3.7025  -3.7017
    -3.5462  -3.5453  -0.5589  -0.5567

     occupation numbers 
     1.0000   1.0000   1.0000   1.0000   1.0000   1.0000   1.0000   1.0000
     1.0000   1.0000   1.0000   1.0000   1.0000   1.0000   1.0000   1.0000
     1.0000   1.0000   1.0000   1.0000   1.0111   1.0112   1.0286   1.0286
     1.0818   1.0812   1.0446   1.0397   0.7006   0.6947   0.3214   0.3190
     0.0412   0.0406   0.0000   0.0000

          k = 0.1500 0.0486-0.1748 ( 22610 PWs)   bands (ev):

   -86.1850 -86.1850 -52.3998 -52.3998 -51.8052 -51.8052 -51.7733 -51.7733
   -14.6562 -14.6561 -14.5708 -14.5707  -5.6965  -5.6938  -4.9756  -4.9743
    -4.7065  -4.7051  -4.5951  -4.5910  -4.2382  -4.2375  -4.1073  -4.1065
    -3.9425  -3.9361  -3.8770  -3.8634  -3.8111  -3.7959  -3.5618  -3.5527
    -3.3623  -3.3593  -1.2353  -1.2100

     occupation numbers 
     1.0000   1.0000   1.0000   1.0000   1.0000   1.0000   1.0000   1.0000
     1.0000   1.0000   1.0000   1.0000   1.0000   1.0000   1.0000   1.0000
     1.0000   1.0000   1.0000   1.0000   1.0086   1.0087   1.0501   1.0505
     1.0478   1.0399   0.9229   0.8851   0.7107   0.6546   0.0533   0.0459
     0.0008   0.0008   0.0000   0.0000

          k = 0.1500 0.1457-0.1748 ( 22594 PWs)   bands (ev):

   -86.1850 -86.1850 -52.3998 -52.3998 -51.8052 -51.8052 -51.7733 -51.7733
   -14.6526 -14.6525 -14.5729 -14.5728  -5.6828  -5.6805  -4.9792  -4.9755
    -4.7077  -4.7067  -4.5892  -4.5871  -4.2622  -4.2618  -4.1245  -4.1231
    -3.9367  -3.9347  -3.8665  -3.8416  -3.8183  -3.7916  -3.5665  -3.5599
    -3.4497  -3.4436  -1.0985  -1.0760

     occupation numbers 
     1.0000   1.0000   1.0000   1.0000   1.0000   1.0000   1.0000   1.0000
     1.0000   1.0000   1.0000   1.0000   1.0000   1.0000   1.0000   1.0000
     1.0000   1.0000   1.0000   1.0000   1.0056   1.0056   1.0423   1.0429
     1.0407   1.0381   0.8940   0.8171   0.7368   0.6384   0.0574   0.0517
     0.0065   0.0057   0.0000   0.0000

          k = 0.1500 0.2428-0.1748 ( 22544 PWs)   bands (ev):

   -86.1850 -86.1850 -52.3998 -52.3998 -51.8052 -51.8052 -51.7733 -51.7733
   -14.6461 -14.6460 -14.5769 -14.5769  -5.6602  -5.6587  -4.9911  -4.9860
    -4.7116  -4.7105  -4.5707  -4.5695  -4.2878  -4.2864  -4.1440  -4.1430
    -3.9439  -3.9415  -3.8601  -3.8393  -3.7923  -3.7686  -3.6083  -3.6020
    -3.5643  -3.5480  -0.8772  -0.8598

     occupation numbers 
     1.0000   1.0000   1.0000   1.0000   1.0000   1.0000   1.0000   1.0000
     1.0000   1.0000   1.0000   1.0000   1.0000   1.0000   1.0000   1.0000
     1.0000   1.0000   1.0000   1.0000   1.0034   1.0035   1.0340   1.0344
     1.0494   1.0467   0.8755   0.8095   0.6411   0.5519   0.1067   0.0976
     0.0554   0.0425   0.0000   0.0000

          k = 0.1500 0.3399-0.1748 ( 22536 PWs)   bands (ev):

   -86.1850 -86.1850 -52.3998 -52.3998 -51.8052 -51.8052 -51.7733 -51.7733
   -14.6387 -14.6387 -14.5819 -14.5818  -5.6374  -5.6366  -5.0086  -5.0042
    -4.7168  -4.7158  -4.5490  -4.5472  -4.2787  -4.2768  -4.1576  -4.1570
    -3.9627  -3.9575  -3.8625  -3.8565  -3.7797  -3.7613  -3.7313  -3.7255
    -3.5725  -3.5649  -0.6579  -0.6447

     occupation numbers 
     1.0000   1.0000   1.0000   1.0000   1.0000   1.0000   1.0000   1.0000
     1.0000   1.0000   1.0000   1.0000   1.0000   1.0000   1.0000   1.0000
     1.0000   1.0000   1.0000   1.0000   1.0041   1.0042   1.0288   1.0290
     1.0671   1.0630   0.8825   0.8646   0.5936   0.5245   0.4161   0.3961
     0.0630   0.0560   0.0000   0.0000

          k = 0.1500 0.4371-0.1748 ( 22520 PWs)   bands (ev):

   -86.1850 -86.1850 -52.3998 -52.3998 -51.8052 -51.8052 -51.7733 -51.7733
   -14.6334 -14.6334 -14.5857 -14.5857  -5.6234  -5.6231  -5.0199  -5.0182
    -4.7202  -4.7198  -4.5424  -4.5416  -4.2218  -4.2208  -4.1636  -4.1632
    -3.9922  -3.9854  -3.9343  -3.9244  -3.8045  -3.7982  -3.7308  -3.7275
    -3.5724  -3.5700  -0.5245  -0.5186

     occupation numbers 
     1.0000   1.0000   1.0000   1.0000   1.0000   1.0000   1.0000   1.0000
     1.0000   1.0000   1.0000   1.0000   1.0000   1.0000   1.0000   1.0000
     1.0000   1.0000   1.0000   1.0000   1.0113   1.0115   1.0267   1.0268
     1.0813   1.0794   1.0375   1.0231   0.6867   0.6633   0.4142   0.4031
     0.0630   0.0606   0.0000   0.0000

          k = 0.2500 0.0486-0.1748 ( 22580 PWs)   bands (ev):

   -86.1850 -86.1850 -52.3998 -52.3998 -51.8052 -51.8052 -51.7733 -51.7733
   -14.6549 -14.6548 -14.5697 -14.5696  -5.6925  -5.6892  -4.9702  -4.9685
    -4.7157  -4.7139  -4.5889  -4.5837  -4.2377  -4.2368  -4.1111  -4.1100
    -3.9560  -3.9330  -3.9219  -3.8979  -3.8074  -3.7961  -3.6027  -3.5914
    -3.3525  -3.3488  -1.1358  -1.1023

     occupation numbers 
     1.0000   1.0000   1.0000   1.0000   1.0000   1.0000   1.0000   1.0000
     1.0000   1.0000   1.0000   1.0000   1.0000   1.0000   1.0000   1.0000
     1.0000   1.0000   1.0000   1.0000   1.0087   1.0088   1.0484   1.0489
     1.0616   1.0358   1.0190   0.9733   0.6971   0.6551   0.0987   0.0838
     0.0006   0.0006   0.0000   0.0000

          k = 0.2500 0.1457-0.1748 ( 22568 PWs)   bands (ev):

   -86.1850 -86.1850 -52.3998 -52.3998 -51.8052 -51.8052 -51.7733 -51.7733
   -14.6513 -14.6512 -14.5718 -14.5717  -5.6789  -5.6761  -4.9735  -4.9688
    -4.7171  -4.7158  -4.5833  -4.5806  -4.2612  -4.2607  -4.1320  -4.1304
    -3.9334  -3.9231  -3.9053  -3.8818  -3.8186  -3.7997  -3.6071  -3.5983
    -3.4399  -3.4331  -1.0033  -0.9733

     occupation numbers 
     1.0000   1.0000   1.0000   1.0000   1.0000   1.0000   1.0000   1.0000
     1.0000   1.0000   1.0000   1.0000   1.0000   1.0000   1.0000   1.0000
     1.0000   1.0000   1.0000   1.0000   1.0057   1.0057   1.0390   1.0397
     1.0363   1.0210   0.9889   0.9352   0.7379   0.6686   0.1049   0.0927
     0.0053   0.0046   0.0000   0.0000

          k = 0.2500 0.2428-0.1748 ( 22552 PWs)   bands (ev):

   -86.1850 -86.1850 -52.3998 -52.3998 -51.8052 -51.8052 -51.7733 -51.7733
   -14.6448 -14.6448 -14.5759 -14.5758  -5.6565  -5.6546  -4.9845  -4.9780
    -4.7215  -4.7201  -4.5659  -4.5645  -4.2862  -4.2844  -4.1533  -4.1523
    -3.9333  -3.9297  -3.8791  -3.8452  -3.8272  -3.7916  -3.6216  -3.6169
    -3.5794  -3.5614  -0.7915  -0.7679

     occupation numbers 
     1.0000   1.0000   1.0000   1.0000   1.0000   1.0000   1.0000   1.0000
     1.0000   1.0000   1.0000   1.0000   1.0000   1.0000   1.0000   1.0000
     1.0000   1.0000   1.0000   1.0000   1.0035   1.0036   1.0304   1.0308
     1.0361   1.0310   0.9284   0.8290   0.7682   0.6384   0.1277   0.1200
     0.0702   0.0529   0.0000   0.0000

          k = 0.2500 0.3399-0.1748 ( 22562 PWs)   bands (ev):

   -86.1850 -86.1850 -52.3998 -52.3998 -51.8052 -51.8052 -51.7733 -51.7733
   -14.6375 -14.6374 -14.5808 -14.5807  -5.6338  -5.6329  -5.0008  -4.9952
    -4.7274  -4.7261  -4.5461  -4.5439  -4.2762  -4.2739  -4.1667  -4.1662
    -3.9532  -3.9460  -3.8638  -3.8479  -3.8159  -3.7851  -3.7312  -3.7245
    -3.6122  -3.6021  -0.5858  -0.5682

     occupation numbers 
     1.0000   1.0000   1.0000   1.0000   1.0000   1.0000   1.0000   1.0000
     1.0000   1.0000   1.0000   1.0000   1.0000   1.0000   1.0000   1.0000
     1.0000   1.0000   1.0000   1.0000   1.0043   1.0045   1.0256   1.0258
     1.0591   1.0517   0.8861   0.8378   0.7281   0.6140   0.4156   0.3926
     0.1125   0.0978   0.0000   0.0000

          k = 0.2500 0.4371-0.1748 ( 22554 PWs)   bands (ev):

   -86.1850 -86.1850 -52.3998 -52.3998 -51.8052 -51.8052 -51.7733 -51.7733
   -14.6321 -14.6321 -14.5846 -14.5846  -5.6198  -5.6196  -5.0110  -5.0088
    -4.7311  -4.7306  -4.5403  -4.5395  -4.2196  -4.2186  -4.1722  -4.1716
    -3.9866  -3.9789  -3.9224  -3.9096  -3.8061  -3.7851  -3.7734  -3.7583
    -3.6114  -3.6085  -0.4623  -0.4548

     occupation numbers 
     1.0000   1.0000   1.0000   1.0000   1.0000   1.0000   1.0000   1.0000
     1.0000   1.0000   1.0000   1.0000   1.0000   1.0000   1.0000   1.0000
     1.0000   1.0000   1.0000   1.0000   1.0117   1.0119   1.0238   1.0240
     1.0798   1.0768   1.0199   0.9974   0.6926   0.6140   0.5700   0.5133
     0.1114   0.1070   0.0000   0.0000

          k = 0.3500 0.0486-0.1748 ( 22580 PWs)   bands (ev):

   -86.1850 -86.1850 -52.3998 -52.3998 -51.8052 -51.8052 -51.7733 -51.7733
   -14.6536 -14.6535 -14.5686 -14.5685  -5.6880  -5.6852  -4.9644  -4.9629
    -4.7248  -4.7232  -4.5815  -4.5771  -4.2372  -4.2362  -4.1154  -4.1143
    -3.9980  -3.9874  -3.9095  -3.9001  -3.8016  -3.7943  -3.6395  -3.6300
    -3.3421  -3.3392  -1.0234  -0.9937

     occupation numbers 
     1.0000   1.0000   1.0000   1.0000   1.0000   1.0000   1.0000   1.0000
     1.0000   1.0000   1.0000   1.0000   1.0000   1.0000   1.0000   1.0000
     1.0000   1.0000   1.0000   1.0000   1.0087   1.0089   1.0464   1.0468
     1.0824   1.0800   0.9972   0.9780   0.6757   0.6486   0.1608   0.1426
     0.0005   0.0005   0.0000   0.0000

          k = 0.3500 0.1457-0.1748 ( 22578 PWs)   bands (ev):

   -86.1850 -86.1850 -52.3998 -52.3998 -51.8052 -51.8052 -51.7733 -51.7733
   -14.6500 -14.6499 -14.5707 -14.5706  -5.6745  -5.6722  -4.9669  -4.9630
    -4.7265  -4.7255  -4.5767  -4.5744  -4.2602  -4.2598  -4.1412  -4.1400
    -3.9570  -3.9490  -3.9094  -3.8982  -3.8107  -3.8004  -3.6441  -3.6364
    -3.4289  -3.4236  -0.8956  -0.8689

     occupation numbers 
     1.0000   1.0000   1.0000   1.0000   1.0000   1.0000   1.0000   1.0000
     1.0000   1.0000   1.0000   1.0000   1.0000   1.0000   1.0000   1.0000
     1.0000   1.0000   1.0000   1.0000   1.0058   1.0058   1.0352   1.0356
     1.0625   1.0550   0.9969   0.9740   0.7092   0.6713   0.1700   0.1546
     0.0042   0.0037   0.0000   0.0000

          k = 0.3500 0.2428-0.1748 ( 22556 PWs)   bands (ev):

   -86.1850 -86.1850 -52.3998 -52.3998 -51.8052 -51.8052 -51.7733 -51.7733
   -14.6436 -14.6435 -14.5748 -14.5747  -5.6524  -5.6509  -4.9766  -4.9712
    -4.7315  -4.7303  -4.5608  -4.5597  -4.2843  -4.2829  -4.1637  -4.1631
    -3.9256  -3.9188  -3.9083  -3.8885  -3.8172  -3.8004  -3.6513  -3.6496
    -3.5703  -3.5600  -0.6943  -0.6728

     occupation numbers 
     1.0000   1.0000   1.0000   1.0000   1.0000   1.0000   1.0000   1.0000
     1.0000   1.0000   1.0000   1.0000   1.0000   1.0000   1.0000   1.0000
     1.0000   1.0000   1.0000   1.0000   1.0036   1.0037   1.0267   1.0269
     1.0250   1.0140   0.9948   0.9518   0.7327   0.6713   0.1856   0.1819
     0.0609   0.0518   0.0000   0.0000

          k = 0.3500 0.3399-0.1748 ( 22552 PWs)   bands (ev):

   -86.1850 -86.1850 -52.3998 -52.3998 -51.8052 -51.8052 -51.7733 -51.7733
   -14.6362 -14.6362 -14.5797 -14.5796  -5.6300  -5.6293  -4.9918  -4.9872
    -4.7381  -4.7370  -4.5428  -4.5411  -4.2732  -4.2714  -4.1764  -4.1761
    -3.9435  -3.9364  -3.8749  -3.8599  -3.8354  -3.8094  -3.7188  -3.7148
    -3.6473  -3.6376  -0.5033  -0.4875

     occupation numbers 
     1.0000   1.0000   1.0000   1.0000   1.0000   1.0000   1.0000   1.0000
     1.0000   1.0000   1.0000   1.0000   1.0000   1.0000   1.0000   1.0000
     1.0000   1.0000   1.0000   1.0000   1.0045   1.0047   1.0225   1.0226
     1.0489   1.0403   0.9172   0.8749   0.7964   0.7045   0.3735   0.3605
     0.1769   0.1570   0.0000   0.0000

          k = 0.3500 0.4371-0.1748 ( 22576 PWs)   bands (ev):

   -86.1850 -86.1850 -52.3998 -52.3998 -51.8052 -51.8052 -51.7733 -51.7733
   -14.6309 -14.6309 -14.5835 -14.5835  -5.6163  -5.6160  -5.0016  -4.9998
    -4.7425  -4.7420  -4.5381  -4.5374  -4.2173  -4.2168  -4.1808  -4.1801
    -3.9805  -3.9748  -3.9096  -3.8972  -3.8320  -3.8173  -3.7673  -3.7604
    -3.6470  -3.6447  -0.3913  -0.3847

     occupation numbers 
     1.0000   1.0000   1.0000   1.0000   1.0000   1.0000   1.0000   1.0000
     1.0000   1.0000   1.0000   1.0000   1.0000   1.0000   1.0000   1.0000
     1.0000   1.0000   1.0000   1.0000   1.0122   1.0123   1.0211   1.0213
     1.0775   1.0748   0.9972   0.9717   0.7850   0.7333   0.5470   0.5213
     0.1763   0.1714   0.0000   0.0000

          k = 0.4500 0.0486-0.1748 ( 22562 PWs)   bands (ev):

   -86.1850 -86.1850 -52.3998 -52.3998 -51.8052 -51.8052 -51.7733 -51.7733
   -14.6528 -14.6527 -14.5679 -14.5678  -5.6845  -5.6835  -4.9604  -4.9598
    -4.7302  -4.7296  -4.5757  -4.5740  -4.2367  -4.2362  -4.1186  -4.1181
    -4.0254  -4.0219  -3.8999  -3.8971  -3.7968  -3.7942  -3.6589  -3.6551
    -3.3351  -3.3340  -0.9410  -0.9289

     occupation numbers 
     1.0000   1.0000   1.0000   1.0000   1.0000   1.0000   1.0000   1.0000
     1.0000   1.0000   1.0000   1.0000   1.0000   1.0000   1.0000   1.0000
     1.0000   1.0000   1.0000   1.0000   1.0088   1.0089   1.0449   1.0451
     1.0819   1.0825   0.9777   0.9716   0.6580   0.6482   0.2029   0.1941
     0.0004   0.0004   0.0000   0.0000

          k = 0.4500 0.1457-0.1748 ( 22568 PWs)   bands (ev):

   -86.1850 -86.1850 -52.3998 -52.3998 -51.8052 -51.8052 -51.7733 -51.7733
   -14.6491 -14.6491 -14.5700 -14.5700  -5.6713  -5.6704  -4.9618  -4.9603
    -4.7323  -4.7318  -4.5720  -4.5711  -4.2595  -4.2594  -4.1479  -4.1475
    -3.9792  -3.9768  -3.9002  -3.8971  -3.8041  -3.8008  -3.6640  -3.6609
    -3.4209  -3.4189  -0.8167  -0.8056

     occupation numbers 
     1.0000   1.0000   1.0000   1.0000   1.0000   1.0000   1.0000   1.0000
     1.0000   1.0000   1.0000   1.0000   1.0000   1.0000   1.0000   1.0000
     1.0000   1.0000   1.0000   1.0000   1.0058   1.0059   1.0325   1.0326
     1.0769   1.0758   0.9784   0.9716   0.6852   0.6727   0.2150   0.2076
     0.0035   0.0033   0.0000   0.0000

          k = 0.4500 0.2428-0.1748 ( 22584 PWs)   bands (ev):

   -86.1850 -86.1850 -52.3998 -52.3998 -51.8052 -51.8052 -51.7733 -51.7733
   -14.6428 -14.6427 -14.5741 -14.5740  -5.6495  -5.6489  -4.9705  -4.9683
    -4.7376  -4.7371  -4.5574  -4.5570  -4.2828  -4.2822  -4.1708  -4.1707
    -3.9315  -3.9297  -3.9097  -3.9050  -3.8084  -3.8034  -3.6716  -3.6704
    -3.5612  -3.5577  -0.6230  -0.6140

     occupation numbers 
     1.0000   1.0000   1.0000   1.0000   1.0000   1.0000   1.0000   1.0000
     1.0000   1.0000   1.0000   1.0000   1.0000   1.0000   1.0000   1.0000
     1.0000   1.0000   1.0000   1.0000   1.0037   1.0038   1.0242   1.0243
     1.0337   1.0311   0.9974   0.9882   0.7010   0.6825   0.2340   0.2309
     0.0527   0.0498   0.0000   0.0000

          k = 0.4500 0.3399-0.1748 ( 22542 PWs)   bands (ev):

   -86.1850 -86.1850 -52.3998 -52.3998 -51.8052 -51.8052 -51.7733 -51.7733
   -14.6354 -14.6354 -14.5790 -14.5790  -5.6276  -5.6273  -4.9851  -4.9833
    -4.7447  -4.7443  -4.5403  -4.5397  -4.2710  -4.2704  -4.1827  -4.1826
    -3.9364  -3.9332  -3.8879  -3.8850  -3.8269  -3.8196  -3.7104  -3.7086
    -3.6644  -3.6598  -0.4426  -0.4360

     occupation numbers 
     1.0000   1.0000   1.0000   1.0000   1.0000   1.0000   1.0000   1.0000
     1.0000   1.0000   1.0000   1.0000   1.0000   1.0000   1.0000   1.0000
     1.0000   1.0000   1.0000   1.0000   1.0047   1.0048   1.0206   1.0206
     1.0403   1.0360   0.9504   0.9433   0.7673   0.7416   0.3461   0.3404
     0.2159   0.2049   0.0000   0.0000

          k = 0.4500 0.4371-0.1748 ( 22574 PWs)   bands (ev):

   -86.1850 -86.1850 -52.3998 -52.3998 -51.8052 -51.8052 -51.7733 -51.7733
   -14.6301 -14.6301 -14.5828 -14.5828  -5.6140  -5.6139  -4.9953  -4.9946
    -4.7496  -4.7494  -4.5366  -4.5364  -4.2161  -4.2159  -4.1859  -4.1856
    -3.9763  -3.9743  -3.8993  -3.8931  -3.8508  -3.8443  -3.7561  -3.7544
    -3.6672  -3.6663  -0.3400  -0.3373

     occupation numbers 
     1.0000   1.0000   1.0000   1.0000   1.0000   1.0000   1.0000   1.0000
     1.0000   1.0000   1.0000   1.0000   1.0000   1.0000   1.0000   1.0000
     1.0000   1.0000   1.0000   1.0000   1.0124   1.0125   1.0197   1.0197
     1.0755   1.0745   0.9764   0.9625   0.8467   0.8260   0.5053   0.4988
     0.2227   0.2206   0.0000   0.0000

     the Fermi energy is    -3.7268 ev

!    total energy              =    -697.58702055 Ry
     estimated scf accuracy    <          2.0E-10 Ry
     smearing contrib. (-TS)   =      -0.00144570 Ry
     internal energy E=F+TS    =    -697.58557486 Ry

     The total energy is F=E-TS. E is the sum of the following terms:
     one-electron contribution =    -520.34055521 Ry
     hartree contribution      =     257.79201261 Ry
     xc contribution           =    -164.55408558 Ry
     ewald contribution        =    -270.48294668 Ry

     convergence has been achieved in  18 iterations

     Forces acting on atoms (cartesian axes, Ry/au):

     atom    1 type  1   force =     0.00000000    0.00000000    0.00000000
     atom    2 type  1   force =     0.00000000    0.00000000    0.00000000
     atom    3 type  2   force =     0.00570015    0.04219295   -0.00014973
     atom    4 type  2   force =    -0.00570015    0.04219295    0.00014973
     atom    5 type  2   force =    -0.00570015   -0.04219295    0.00014973
     atom    6 type  2   force =     0.00570015   -0.04219295   -0.00014973
     The non-local contrib.  to forces
     atom    1 type  1   force =     0.00000000    0.00000000    0.00000000
     atom    2 type  1   force =     0.00000000    0.00000000    0.00000000
     atom    3 type  2   force =     0.02330635    0.11378307    0.03142949
     atom    4 type  2   force =    -0.02330635    0.11378307   -0.03142949
     atom    5 type  2   force =    -0.02330635   -0.11378307   -0.03142949
     atom    6 type  2   force =     0.02330635   -0.11378307    0.03142949
     The ionic contribution  to forces
     atom    1 type  1   force =     0.00000000    0.00000000    0.00000000
     atom    2 type  1   force =     0.00000000   -0.00000000   -0.00000000
     atom    3 type  2   force =    -0.52454866   -2.00502426   -0.95835926
     atom    4 type  2   force =     0.52454866   -2.00502426    0.95835926
     atom    5 type  2   force =     0.52454866    2.00502426    0.95835926
     atom    6 type  2   force =    -0.52454866    2.00502426   -0.95835926
     The local contribution  to forces
     atom    1 type  1   force =    -0.00000000    0.00000000    0.00000000
     atom    2 type  1   force =    -0.00000000   -0.00000000    0.00000000
     atom    3 type  2   force =     0.50991780    1.94710613    0.93048787
     atom    4 type  2   force =    -0.50991780    1.94710613   -0.93048787
     atom    5 type  2   force =    -0.50991780   -1.94710613   -0.93048787
     atom    6 type  2   force =     0.50991780   -1.94710613    0.93048787
     The core correction contribution to forces
     atom    1 type  1   force =     0.00000000    0.00000000    0.00000000
     atom    2 type  1   force =     0.00000000    0.00000000    0.00000000
     atom    3 type  2   force =    -0.00297543   -0.01367369   -0.00370916
     atom    4 type  2   force =     0.00297543   -0.01367369    0.00370916
     atom    5 type  2   force =     0.00297543    0.01367369    0.00370916
     atom    6 type  2   force =    -0.00297543    0.01367369   -0.00370916
     The Hubbard contrib.    to forces
     atom    1 type  1   force =     0.00000000    0.00000000    0.00000000
     atom    2 type  1   force =     0.00000000    0.00000000    0.00000000
     atom    3 type  2   force =     0.00000000    0.00000000    0.00000000
     atom    4 type  2   force =     0.00000000    0.00000000    0.00000000
     atom    5 type  2   force =     0.00000000    0.00000000    0.00000000
     atom    6 type  2   force =     0.00000000    0.00000000    0.00000000
     The SCF correction term to forces
     atom    1 type  1   force =    -0.00000000    0.00000000   -0.00000000
     atom    2 type  1   force =    -0.00000000    0.00000000   -0.00000000
     atom    3 type  2   force =     0.00000009    0.00000170    0.00000133
     atom    4 type  2   force =    -0.00000009    0.00000170   -0.00000133
     atom    5 type  2   force =    -0.00000009   -0.00000170   -0.00000133
     atom    6 type  2   force =     0.00000009   -0.00000170    0.00000133

     Total force =     0.085153     Total SCF correction =     0.000004


     Computing stress (Cartesian axis) and pressure

          total   stress  (Ry/bohr**3)                   (kbar)     P=     -524.38
  -0.00517449  -0.00000000   0.00002455         -761.19       -0.00        3.61
  -0.00000000  -0.00550260   0.00000000           -0.00     -809.46        0.00
   0.00002455   0.00000000  -0.00001688            3.61        0.00       -2.48

     kinetic stress (kbar)   5039.65      0.00     18.40
                                0.00   4958.68      0.00
                               18.40      0.00   5072.16

     local   stress (kbar)   -772.41      0.00    405.62
                                0.00  -7476.03     -0.00
                              405.62     -0.00 -10204.48

     nonloc. stress (kbar)   1449.44      0.00     -0.57
                                0.00   1477.34     -0.00
                               -0.57     -0.00   1532.13

     hartree stress (kbar)   1083.84     -0.00   -167.78
                               -0.00   3956.62     -0.00
                             -167.78     -0.00   4995.50

     exc-cor stress (kbar)   2983.42     -0.00     -0.17
                               -0.00   2986.25     -0.00
                               -0.17     -0.00   2989.24

     corecor stress (kbar)  -3885.17      0.00     -0.11
                                0.00  -3887.61     -0.00
                               -0.11     -0.00  -3901.06

     ewald   stress (kbar)  -6659.96     -0.00   -251.77
                               -0.00  -2824.72      0.00
                             -251.77      0.00   -485.97

     hubbard stress (kbar)      0.00      0.00      0.00
                                0.00      0.00      0.00
                                0.00      0.00      0.00

     DFT-D   stress (kbar)      0.00      0.00      0.00
                                0.00      0.00      0.00
                                0.00      0.00      0.00

     XDM     stress (kbar)      0.00      0.00      0.00
                                0.00      0.00      0.00
                                0.00      0.00      0.00

     dft-nl  stress (kbar)      0.00      0.00      0.00
                                0.00      0.00      0.00
                                0.00      0.00      0.00

     TS-vdW  stress (kbar)      0.00      0.00      0.00
                                0.00      0.00      0.00
                                0.00      0.00      0.00


                                0.00      0.00      0.00
                                0.00      0.00      0.00


                                0.00      0.00      0.00


     Writing all to output data dir ./qesuite_out/pwscf.save/
 
     init_run     :    360.60s CPU      6.88s WALL (       1 calls)
     electrons    :  13225.10s CPU    214.97s WALL (       1 calls)
     forces       :    100.46s CPU      1.65s WALL (       1 calls)
     stress       :    609.21s CPU     10.08s WALL (       1 calls)

     Called by init_run:
     wfcinit      :    307.72s CPU      5.07s WALL (       1 calls)
     wfcinit:atom :     10.52s CPU      0.19s WALL (      25 calls)
     wfcinit:wfcr :    237.66s CPU      3.87s WALL (      25 calls)
     potinit      :     22.41s CPU      0.47s WALL (       1 calls)
     hinit0       :     15.14s CPU      0.88s WALL (       1 calls)

     Called by electrons:
     c_bands      :  10446.67s CPU    168.81s WALL (      18 calls)
     sum_band     :   2365.15s CPU     39.17s WALL (      18 calls)
     v_of_rho     :    108.18s CPU      1.89s WALL (      19 calls)
     v_h          :     10.61s CPU      0.18s WALL (      19 calls)
     v_xc         :    106.02s CPU      1.85s WALL (      21 calls)
     newd         :    242.76s CPU      4.18s WALL (      19 calls)
     mix_rho      :     71.93s CPU      1.20s WALL (      18 calls)

     Called by c_bands:
     init_us_2    :    248.11s CPU      4.07s WALL (     975 calls)
     init_us_2:cp :    239.14s CPU      3.92s WALL (     975 calls)
     cegterg      :  10058.86s CPU    162.49s WALL (     450 calls)

     Called by sum_band:
     sum_band:wei :      5.50s CPU      0.09s WALL (      18 calls)
     sum_band:loo :   2057.84s CPU     33.32s WALL (      18 calls)
     sum_band:buf :    199.54s CPU      3.35s WALL (     450 calls)
     sum_band:ini :    115.09s CPU      1.90s WALL (     450 calls)
     sum_band:cal :    241.43s CPU      3.91s WALL (     450 calls)
     sum_band:bec :      8.69s CPU      0.15s WALL (     450 calls)
     addusdens    :    247.10s CPU      4.83s WALL (      18 calls)
     addusd:skk   :      3.70s CPU      0.09s WALL (      18 calls)
     addusd:dgemm :     25.76s CPU      1.10s WALL (      18 calls)
     addusd:qvan2 :    206.43s CPU      3.39s WALL (      18 calls)

     Called by *egterg:
     cdiaghg      :    178.96s CPU      2.99s WALL (    1448 calls)
     cegterg:over :    393.86s CPU      6.39s WALL (     998 calls)
     cegterg:upda :    274.65s CPU      4.50s WALL (     998 calls)
     cegterg:last :    510.04s CPU      8.30s WALL (     798 calls)
     h_psi        :   7908.47s CPU    127.33s WALL (    1473 calls)
     s_psi        :    512.52s CPU      8.33s WALL (    1473 calls)
     g_psi        :     30.90s CPU      0.51s WALL (     998 calls)

     Called by h_psi:
     h_psi:calbec :    485.65s CPU      7.92s WALL (    1473 calls)
     vloc_psi     :   6770.41s CPU    108.75s WALL (    1473 calls)
     add_vuspsi   :    528.37s CPU      8.59s WALL (    1473 calls)

     General routines
     calbec       :    762.88s CPU     12.42s WALL (    2048 calls)
     fft          :     43.16s CPU      0.80s WALL (     270 calls)
     ffts         :      3.58s CPU      0.06s WALL (      37 calls)
     fftw         :   5154.09s CPU     82.47s WALL (   93802 calls)
     interpolate  :     14.19s CPU      0.24s WALL (      19 calls)
 
 
     PWSCF        :      3h58m CPU   3m54.11s WALL

 
   This run was terminated on:  15:46:34  19Feb2022            

=------------------------------------------------------------------------------=
   JOB DONE.
=------------------------------------------------------------------------------=
