
     Program PWSCF v.7.0 starts on 15Mar2022 at 14: 1:26 

     This program is part of the open-source Quantum ESPRESSO suite
     for quantum simulation of materials; please cite
         "P. Giannozzi et al., J. Phys.:Condens. Matter 21 395502 (2009);
         "P. Giannozzi et al., J. Phys.:Condens. Matter 29 465901 (2017);
         "P. Giannozzi et al., J. Chem. Phys. 152 154105 (2020);
          URL http://www.quantum-espresso.org", 
     in publications or presentations arising from this work. More details at
     http://www.quantum-espresso.org/quote

     Serial multi-threaded version, running on   20 processor cores
     108702 MiB available memory on the printing compute node when the environment starts
 
     Reading input from qe_suite.bands.inp

     Current dimensions of program PWSCF are:
     Max number of different atomic species (ntypx) = 10
     Max number of k-points (npk) =  40000
     Max angular momentum in pseudopotentials (lmaxx) =  4

     Atomic positions and unit cell read from directory:
     ./qe_suite/qe_suite.save/
     Atomic positions from file used, from input discarded
 
     file C.pbesol-n-kjpaw_psl.1.0.0.UPF: wavefunction(s)  2S 2P renormalized
     Message from routine setup:
     using ibrav=0 with symmetry is DISCOURAGED, use correct ibrav instead
 
     G-vector sticks info
     --------------------
     sticks:   dense  smooth     PW     G-vecs:    dense   smooth      PW
     Sum         499     241     85                53125    18399    3449
 
     Using Slab Decomposition
 


     bravais-lattice index     =            0
     lattice parameter (alat)  =       4.6620  a.u.
     unit-cell volume          =     533.6562 (a.u.)^3
     number of atoms/cell      =            2
     number of atomic types    =            1
     number of electrons       =         8.00
     number of Kohn-Sham states=            5
     kinetic-energy cutoff     =      40.1329  Ry
     charge density cutoff     =     325.4880  Ry
     Exchange-correlation= SLA  PW   PSX  PSC
                           (   1   4  10   8   0   0   0)

     celldm(1)=   4.661954  celldm(2)=   0.000000  celldm(3)=   0.000000
     celldm(4)=   0.000000  celldm(5)=   0.000000  celldm(6)=   0.000000

     crystal axes: (cart. coord. in units of alat)
               a(1) = (   1.000000   0.000000   0.000000 )  
               a(2) = (  -0.500203   0.866234   0.000000 )  
               a(3) = (   0.000000   0.000000   6.080259 )  

     reciprocal axes: (cart. coord. in units 2 pi/alat)
               b(1) = (  1.000000  0.577445  0.000000 )  
               b(2) = (  0.000000  1.154422  0.000000 )  
               b(3) = (  0.000000  0.000000  0.164467 )  


     PseudoPot. # 1 for C  read from file:
     ../SSSP/C.pbesol-n-kjpaw_psl.1.0.0.UPF
     MD5 check sum: 5f3a56537b2bcef3348431d8311bb923
     Pseudo is Projector augmented-wave + core cor, Zval =  4.0
     Generated using "atomic" code by A. Dal Corso  v.6.0 svn rev. 13079
     Shape of augmentation charge: PSQ
     Using radial grid of 1073 points,  4 beta functions with: 
                l(1) =   0
                l(2) =   0
                l(3) =   1
                l(4) =   1
     Q(r) pseudized with 0 coefficients 


     atomic species   valence    mass     pseudopotential
        C              4.00    12.01070     C ( 1.00)

      4 Sym. Ops., with inversion, found



   Cartesian axes

     site n.     atom                  positions (alat units)
         1           C   tau(   1) = (   0.4999824   0.2887159   3.0401297  )
         2           C   tau(   2) = (  -0.0001851   0.5775184   3.0401297  )

     number of k points=    60
                       cart. coord. in units 2pi/alat
        k(    1) = (   0.0000000   0.0000000   0.0000000), wk =   0.0333333
        k(    2) = (   0.0250000   0.0144361   0.0000000), wk =   0.0333333
        k(    3) = (   0.0500000   0.0288723   0.0000000), wk =   0.0333333
        k(    4) = (   0.0750000   0.0433084   0.0000000), wk =   0.0333333
        k(    5) = (   0.1000000   0.0577445   0.0000000), wk =   0.0333333
        k(    6) = (   0.1250000   0.0721806   0.0000000), wk =   0.0333333
        k(    7) = (   0.1500000   0.0866168   0.0000000), wk =   0.0333333
        k(    8) = (   0.1750000   0.1010529   0.0000000), wk =   0.0333333
        k(    9) = (   0.2000000   0.1154890   0.0000000), wk =   0.0333333
        k(   10) = (   0.2250000   0.1299251   0.0000000), wk =   0.0333333
        k(   11) = (   0.2500000   0.1443613   0.0000000), wk =   0.0333333
        k(   12) = (   0.2750000   0.1587974   0.0000000), wk =   0.0333333
        k(   13) = (   0.3000000   0.1732335   0.0000000), wk =   0.0333333
        k(   14) = (   0.3250000   0.1876696   0.0000000), wk =   0.0333333
        k(   15) = (   0.3500000   0.2021058   0.0000000), wk =   0.0333333
        k(   16) = (   0.3750000   0.2165419   0.0000000), wk =   0.0333333
        k(   17) = (   0.4000000   0.2309780   0.0000000), wk =   0.0333333
        k(   18) = (   0.4250000   0.2454141   0.0000000), wk =   0.0333333
        k(   19) = (   0.4500000   0.2598503   0.0000000), wk =   0.0333333
        k(   20) = (   0.4750000   0.2742864   0.0000000), wk =   0.0333333
        k(   21) = (   0.5000000   0.2887225   0.0000000), wk =   0.0333333
        k(   22) = (   0.4916667   0.3031508   0.0000000), wk =   0.0333333
        k(   23) = (   0.4833333   0.3175792   0.0000000), wk =   0.0333333
        k(   24) = (   0.4750000   0.3320075   0.0000000), wk =   0.0333333
        k(   25) = (   0.4666667   0.3464358   0.0000000), wk =   0.0333333
        k(   26) = (   0.4583333   0.3608641   0.0000000), wk =   0.0333333
        k(   27) = (   0.4500000   0.3752925   0.0000000), wk =   0.0333333
        k(   28) = (   0.4416667   0.3897208   0.0000000), wk =   0.0333333
        k(   29) = (   0.4333333   0.4041491   0.0000000), wk =   0.0333333
        k(   30) = (   0.4250000   0.4185774   0.0000000), wk =   0.0333333
        k(   31) = (   0.4166667   0.4330058   0.0000000), wk =   0.0333333
        k(   32) = (   0.4083333   0.4474341   0.0000000), wk =   0.0333333
        k(   33) = (   0.4000000   0.4618624   0.0000000), wk =   0.0333333
        k(   34) = (   0.3916667   0.4762908   0.0000000), wk =   0.0333333
        k(   35) = (   0.3833333   0.4907191   0.0000000), wk =   0.0333333
        k(   36) = (   0.3750000   0.5051474   0.0000000), wk =   0.0333333
        k(   37) = (   0.3666667   0.5195757   0.0000000), wk =   0.0333333
        k(   38) = (   0.3583333   0.5340041   0.0000000), wk =   0.0333333
        k(   39) = (   0.3500000   0.5484324   0.0000000), wk =   0.0333333
        k(   40) = (   0.3416667   0.5628607   0.0000000), wk =   0.0333333
        k(   41) = (   0.3333333   0.5772890   0.0000000), wk =   0.0333333
        k(   42) = (   0.3166667   0.5484246   0.0000000), wk =   0.0333333
        k(   43) = (   0.3000000   0.5195601   0.0000000), wk =   0.0333333
        k(   44) = (   0.2833333   0.4906957   0.0000000), wk =   0.0333333
        k(   45) = (   0.2666667   0.4618312   0.0000000), wk =   0.0333333
        k(   46) = (   0.2500000   0.4329668   0.0000000), wk =   0.0333333
        k(   47) = (   0.2333333   0.4041023   0.0000000), wk =   0.0333333
        k(   48) = (   0.2166667   0.3752379   0.0000000), wk =   0.0333333
        k(   49) = (   0.2000000   0.3463734   0.0000000), wk =   0.0333333
        k(   50) = (   0.1833333   0.3175090   0.0000000), wk =   0.0333333
        k(   51) = (   0.1666667   0.2886445   0.0000000), wk =   0.0333333
        k(   52) = (   0.1500000   0.2597801   0.0000000), wk =   0.0333333
        k(   53) = (   0.1333333   0.2309156   0.0000000), wk =   0.0333333
        k(   54) = (   0.1166667   0.2020512   0.0000000), wk =   0.0333333
        k(   55) = (   0.1000000   0.1731867   0.0000000), wk =   0.0333333
        k(   56) = (   0.0833333   0.1443223   0.0000000), wk =   0.0333333
        k(   57) = (   0.0666667   0.1154578   0.0000000), wk =   0.0333333
        k(   58) = (   0.0500000   0.0865934   0.0000000), wk =   0.0333333
        k(   59) = (   0.0333333   0.0577289   0.0000000), wk =   0.0333333
        k(   60) = (   0.0166667   0.0288645   0.0000000), wk =   0.0333333

     Dense  grid:    53125 G-vectors     FFT dimensions: (  27,  27, 180)

     Smooth grid:    18399 G-vectors     FFT dimensions: (  20,  20, 120)

     Estimated max dynamical RAM per process >      53.68 MB

     Check: negative core charge=   -0.000005

     The potential is recalculated from file :
     ./qe_suite/qe_suite.save/charge-density


     negative rho (up, down):  1.589E-04 0.000E+00
     Starting wfcs are    8 randomized atomic wfcs

     Band Structure Calculation
     Davidson diagonalization with overlap

     ethr =  5.00E-12,  avg # of iterations = 29.5

     total cpu time spent up to now is        3.2 secs

     End of band structure calculation

          k = 0.0000 0.0000 0.0000 (  2313 PWs)   bands (ev):

   -21.2838  -9.4469  -4.8235  -4.8140   1.4567

          k = 0.0250 0.0144 0.0000 (  2301 PWs)   bands (ev):

   -21.2690  -9.4292  -4.8823  -4.8490   1.4769

          k = 0.0500 0.0289 0.0000 (  2301 PWs)   bands (ev):

   -21.2247  -9.3762  -5.0621  -4.9454   1.5372

          k = 0.0750 0.0433 0.0000 (  2306 PWs)   bands (ev):

   -21.1509  -9.2879  -5.3519  -5.0970   1.6379

          k = 0.1000 0.0577 0.0000 (  2298 PWs)   bands (ev):

   -21.0477  -9.1645  -5.7368  -5.2941   1.7788

          k = 0.1250 0.0722 0.0000 (  2294 PWs)   bands (ev):

   -20.9152  -9.0064  -6.2007  -5.5255   1.9600

          k = 0.1500 0.0866 0.0000 (  2290 PWs)   bands (ev):

   -20.7535  -8.8139  -6.7281  -5.7794   2.1814

          k = 0.1750 0.1011 0.0000 (  2280 PWs)   bands (ev):

   -20.5628  -8.5877  -7.3040  -6.0460   2.4430

          k = 0.2000 0.1155 0.0000 (  2288 PWs)   bands (ev):

   -20.3433  -8.3284  -7.9160  -6.3167   2.7446

          k = 0.2250 0.1299 0.0000 (  2288 PWs)   bands (ev):

   -20.0952  -8.5531  -8.0369  -6.5836   3.0861

          k = 0.2500 0.1444 0.0000 (  2302 PWs)   bands (ev):

   -19.8189  -9.2064  -7.7146  -6.8412   3.4673

          k = 0.2750 0.1588 0.0000 (  2288 PWs)   bands (ev):

   -19.5146  -9.8678  -7.3628  -7.0846   3.8879

          k = 0.3000 0.1732 0.0000 (  2280 PWs)   bands (ev):

   -19.1830 -10.5315  -7.3100  -6.9842   4.0136

          k = 0.3250 0.1877 0.0000 (  2286 PWs)   bands (ev):

   -18.8246 -11.1923  -7.5146  -6.5819   3.3246

          k = 0.3500 0.2021 0.0000 (  2292 PWs)   bands (ev):

   -18.4402 -11.8453  -7.6958  -6.1605   2.6378

          k = 0.3750 0.2165 0.0000 (  2294 PWs)   bands (ev):

   -18.0311 -12.4862  -7.8519  -5.7275   1.9708

          k = 0.4000 0.2310 0.0000 (  2298 PWs)   bands (ev):

   -17.5991 -13.1107  -7.9815  -5.2944   1.3404

          k = 0.4250 0.2454 0.0000 (  2298 PWs)   bands (ev):

   -17.1481 -13.7133  -8.0834  -4.8806   0.7697

          k = 0.4500 0.2599 0.0000 (  2298 PWs)   bands (ev):

   -16.6875 -14.2830  -8.1567  -4.5187   0.2938

          k = 0.4750 0.2743 0.0000 (  2286 PWs)   bands (ev):

   -16.2514 -14.7850  -8.2006  -4.2596  -0.0347

          k = 0.5000 0.2887 0.0000 (  2288 PWs)   bands (ev):

   -16.0131 -15.0453  -8.2154  -4.1633  -0.1542

          k = 0.4917 0.3032 0.0000 (  2290 PWs)   bands (ev):

   -16.0088 -15.0411  -8.2378  -4.1573  -0.1554

          k = 0.4833 0.3176 0.0000 (  2290 PWs)   bands (ev):

   -15.9962 -15.0284  -8.3043  -4.1393  -0.1594

          k = 0.4750 0.3320 0.0000 (  2294 PWs)   bands (ev):

   -15.9753 -15.0073  -8.4128  -4.1094  -0.1663

          k = 0.4667 0.3464 0.0000 (  2292 PWs)   bands (ev):

   -15.9459 -14.9778  -8.5605  -4.0674  -0.1767

          k = 0.4583 0.3609 0.0000 (  2288 PWs)   bands (ev):

   -15.9081 -14.9402  -8.7435  -4.0135  -0.1914

          k = 0.4500 0.3753 0.0000 (  2284 PWs)   bands (ev):

   -15.8619 -14.8946  -8.9579  -3.9476  -0.2113

          k = 0.4417 0.3897 0.0000 (  2284 PWs)   bands (ev):

   -15.8074 -14.8413  -9.1990  -3.8699  -0.2377

          k = 0.4333 0.4041 0.0000 (  2290 PWs)   bands (ev):

   -15.7445 -14.7806  -9.4624  -3.7803  -0.2721

          k = 0.4250 0.4186 0.0000 (  2290 PWs)   bands (ev):

   -15.6732 -14.7131  -9.7435  -3.6790  -0.3157

          k = 0.4167 0.4330 0.0000 (  2278 PWs)   bands (ev):

   -15.5936 -14.6394 -10.0382  -3.5658  -0.3702

          k = 0.4083 0.4474 0.0000 (  2272 PWs)   bands (ev):

   -15.5056 -14.5606 -10.3422  -3.4409  -0.4374

          k = 0.4000 0.4619 0.0000 (  2274 PWs)   bands (ev):

   -15.4093 -14.4780 -10.6515  -3.3044  -0.5190

          k = 0.3917 0.4763 0.0000 (  2268 PWs)   bands (ev):

   -15.3047 -14.3937 -10.9612  -3.1562  -0.6166

          k = 0.3833 0.4907 0.0000 (  2268 PWs)   bands (ev):

   -15.1918 -14.3110 -11.2662  -2.9966  -0.7315

          k = 0.3750 0.5051 0.0000 (  2264 PWs)   bands (ev):

   -15.0706 -14.2349 -11.5593  -2.8255  -0.8646

          k = 0.3667 0.5196 0.0000 (  2264 PWs)   bands (ev):

   -14.9411 -14.1732 -11.8312  -2.6432  -1.0167

          k = 0.3583 0.5340 0.0000 (  2268 PWs)   bands (ev):

   -14.8035 -14.1382 -12.0684  -2.4496  -1.1878

          k = 0.3500 0.5484 0.0000 (  2279 PWs)   bands (ev):

   -14.6576 -14.1466 -12.2533  -2.2450  -1.3776

          k = 0.3417 0.5629 0.0000 (  2279 PWs)   bands (ev):

   -14.5035 -14.2147 -12.3681  -2.0294  -1.5852

          k = 0.3333 0.5773 0.0000 (  2277 PWs)   bands (ev):

   -14.3494 -14.3411 -12.4055  -1.8095  -1.8026

          k = 0.3167 0.5484 0.0000 (  2267 PWs)   bands (ev):

   -14.7709 -13.9995 -12.2854  -2.2949  -1.3238

          k = 0.3000 0.5196 0.0000 (  2269 PWs)   bands (ev):

   -15.3079 -13.6189 -12.0068  -2.8309  -0.7977

          k = 0.2833 0.4907 0.0000 (  2281 PWs)   bands (ev):

   -15.8774 -13.2069 -11.6436  -3.3952  -0.2323

          k = 0.2667 0.4618 0.0000 (  2287 PWs)   bands (ev):

   -16.4462 -12.7642 -11.2277  -3.9730   0.3704

          k = 0.2500 0.4330 0.0000 (  2289 PWs)   bands (ev):

   -16.9992 -12.2917 -10.7744  -4.5513   1.0078

          k = 0.2333 0.4041 0.0000 (  2299 PWs)   bands (ev):

   -17.5287 -11.7906 -10.2930  -5.1200   1.6762

          k = 0.2167 0.3752 0.0000 (  2305 PWs)   bands (ev):

   -18.0298 -11.2624  -9.7901  -5.6703   2.3718

          k = 0.2000 0.3464 0.0000 (  2301 PWs)   bands (ev):

   -18.4996 -10.7090  -9.2720  -6.1959   3.0901

          k = 0.1833 0.3175 0.0000 (  2295 PWs)   bands (ev):

   -18.9361 -10.1333  -8.7450  -6.6914   3.8244

          k = 0.1667 0.2886 0.0000 (  2299 PWs)   bands (ev):

   -19.3379  -9.5383  -8.2161  -7.1530   4.1374

          k = 0.1500 0.2598 0.0000 (  2303 PWs)   bands (ev):

   -19.7036  -8.9290  -7.6927  -7.5774   3.6292

          k = 0.1333 0.2309 0.0000 (  2301 PWs)   bands (ev):

   -20.0326  -8.3114  -7.9621  -7.1835   3.1739

          k = 0.1167 0.2021 0.0000 (  2303 PWs)   bands (ev):

   -20.3241  -8.3052  -7.6936  -6.6977   2.7717

          k = 0.1000 0.1732 0.0000 (  2297 PWs)   bands (ev):

   -20.5777  -8.6051  -7.0868  -6.2456   2.4230

          k = 0.0833 0.1443 0.0000 (  2299 PWs)   bands (ev):

   -20.7928  -8.8606  -6.5058  -5.8380   2.1277

          k = 0.0667 0.1155 0.0000 (  2307 PWs)   bands (ev):

   -20.9693  -9.0709  -5.9704  -5.4860   1.8861

          k = 0.0500 0.0866 0.0000 (  2299 PWs)   bands (ev):

   -21.1067  -9.2350  -5.5052  -5.1995   1.6983

          k = 0.0333 0.0577 0.0000 (  2297 PWs)   bands (ev):

   -21.2050  -9.3526  -5.1398  -4.9877   1.5641

          k = 0.0167 0.0289 0.0000 (  2299 PWs)   bands (ev):

   -21.2640  -9.4233  -4.9048  -4.8578   1.4836

     Writing all to output data dir ./qe_suite/qe_suite.save/
 
     init_run     :      6.21s CPU      0.36s WALL (       1 calls)
     electrons    :     51.01s CPU      2.66s WALL (       1 calls)

     Called by init_run:
     wfcinit      :      0.00s CPU      0.00s WALL (       1 calls)
     potinit      :      1.28s CPU      0.07s WALL (       1 calls)
     hinit0       :      3.86s CPU      0.22s WALL (       1 calls)

     Called by electrons:
     c_bands      :     50.91s CPU      2.65s WALL (       1 calls)
     v_of_rho     :      0.48s CPU      0.03s WALL (       1 calls)
     newd         :      0.40s CPU      0.03s WALL (       1 calls)
     PAW_pot      :      0.58s CPU      0.03s WALL (       1 calls)

     Called by c_bands:
     init_us_2    :      0.09s CPU      0.01s WALL (      60 calls)
     init_us_2:cp :      0.08s CPU      0.01s WALL (      60 calls)
     cegterg      :     45.53s CPU      2.37s WALL (     112 calls)

     Called by *egterg:
     cdiaghg      :      2.92s CPU      0.10s WALL (    1829 calls)
     h_psi        :     31.41s CPU      1.63s WALL (    1941 calls)
     s_psi        :      0.42s CPU      0.05s WALL (    1941 calls)
     g_psi        :      1.64s CPU      0.05s WALL (    1769 calls)

     Called by h_psi:
     h_psi:calbec :      5.92s CPU      0.10s WALL (    1941 calls)
     vloc_psi     :     11.78s CPU      1.39s WALL (    1941 calls)
     add_vuspsi   :     12.13s CPU      0.07s WALL (    1941 calls)

     General routines
     calbec       :      5.83s CPU      0.09s WALL (    1941 calls)
     fft          :      0.40s CPU      0.02s WALL (      13 calls)
     ffts         :      0.00s CPU      0.00s WALL (       1 calls)
     fftw         :      7.00s CPU      0.94s WALL (   13856 calls)
     interpolate  :      0.02s CPU      0.00s WALL (       1 calls)
     davcio       :      0.26s CPU      0.01s WALL (     120 calls)
 
 
     PWSCF        :     58.94s CPU      3.32s WALL

 
   This run was terminated on:  14: 1:29  15Mar2022            

=------------------------------------------------------------------------------=
   JOB DONE.
=------------------------------------------------------------------------------=
