
     Program PWSCF v.7.0 starts on 15Mar2022 at 14: 1:13 

     This program is part of the open-source Quantum ESPRESSO suite
     for quantum simulation of materials; please cite
         "P. Giannozzi et al., J. Phys.:Condens. Matter 21 395502 (2009);
         "P. Giannozzi et al., J. Phys.:Condens. Matter 29 465901 (2017);
         "P. Giannozzi et al., J. Chem. Phys. 152 154105 (2020);
          URL http://www.quantum-espresso.org", 
     in publications or presentations arising from this work. More details at
     http://www.quantum-espresso.org/quote

     Serial multi-threaded version, running on   20 processor cores
     108715 MiB available memory on the printing compute node when the environment starts
 
     Reading input from qe_suite.scf.inp

     Current dimensions of program PWSCF are:
     Max number of different atomic species (ntypx) = 10
     Max number of k-points (npk) =  40000
     Max angular momentum in pseudopotentials (lmaxx) =  4
     file C.pbesol-n-kjpaw_psl.1.0.0.UPF: wavefunction(s)  2S 2P renormalized
     Message from routine setup:
     using ibrav=0 with symmetry is DISCOURAGED, use correct ibrav instead
 
     G-vector sticks info
     --------------------
     sticks:   dense  smooth     PW     G-vecs:    dense   smooth      PW
     Sum         499     241     85                53125    18399    4017
 
     Using Slab Decomposition
 


     bravais-lattice index     =            0
     lattice parameter (alat)  =       4.6620  a.u.
     unit-cell volume          =     533.6562 (a.u.)^3
     number of atoms/cell      =            2
     number of atomic types    =            1
     number of electrons       =         8.00
     number of Kohn-Sham states=            4
     kinetic-energy cutoff     =      40.1329  Ry
     charge density cutoff     =     325.4880  Ry
     scf convergence threshold =      4.0E-10
     mixing beta               =       0.4000
     number of iterations used =            8  plain     mixing
     Exchange-correlation= SLA  PW   PSX  PSC
                           (   1   4  10   8   0   0   0)

     celldm(1)=   4.661954  celldm(2)=   0.000000  celldm(3)=   0.000000
     celldm(4)=   0.000000  celldm(5)=   0.000000  celldm(6)=   0.000000

     crystal axes: (cart. coord. in units of alat)
               a(1) = (   1.000000   0.000000   0.000000 )  
               a(2) = (  -0.500203   0.866234   0.000000 )  
               a(3) = (   0.000000   0.000000   6.080259 )  

     reciprocal axes: (cart. coord. in units 2 pi/alat)
               b(1) = (  1.000000  0.577445  0.000000 )  
               b(2) = (  0.000000  1.154422  0.000000 )  
               b(3) = (  0.000000  0.000000  0.164467 )  


     PseudoPot. # 1 for C  read from file:
     ../SSSP/C.pbesol-n-kjpaw_psl.1.0.0.UPF
     MD5 check sum: 5f3a56537b2bcef3348431d8311bb923
     Pseudo is Projector augmented-wave + core cor, Zval =  4.0
     Generated using "atomic" code by A. Dal Corso  v.6.0 svn rev. 13079
     Shape of augmentation charge: PSQ
     Using radial grid of 1073 points,  4 beta functions with: 
                l(1) =   0
                l(2) =   0
                l(3) =   1
                l(4) =   1
     Q(r) pseudized with 0 coefficients 


     atomic species   valence    mass     pseudopotential
        C              4.00    12.01070     C ( 1.00)

      4 Sym. Ops., with inversion, found



   Cartesian axes

     site n.     atom                  positions (alat units)
         1           C   tau(   1) = (   0.4999824   0.2887159   3.0401297  )
         2           C   tau(   2) = (  -0.0001851   0.5775184   3.0401297  )

     number of k points=   200

     Number of k-points >= 100: set verbosity='high' to print them.

     Dense  grid:    53125 G-vectors     FFT dimensions: (  27,  27, 180)

     Smooth grid:    18399 G-vectors     FFT dimensions: (  20,  20, 120)

     Estimated max dynamical RAM per process >     100.45 MB

     Check: negative core charge=   -0.000005

     Initial potential from superposition of free atoms

     starting charge       7.9999, renormalised to       8.0000

     negative rho (up, down):  4.343E-05 0.000E+00
     Starting wfcs are    8 randomized atomic wfcs

     total cpu time spent up to now is        1.2 secs

     Self-consistent Calculation

     iteration #  1     ecut=    40.13 Ry     beta= 0.40
     Davidson diagonalization with overlap
     ethr =  1.00E-02,  avg # of iterations =  2.0

     negative rho (up, down):  7.669E-05 0.000E+00

     total cpu time spent up to now is        2.2 secs

     total energy              =     -36.24118615 Ry
     estimated scf accuracy    <       0.18504768 Ry

     iteration #  2     ecut=    40.13 Ry     beta= 0.40
     Davidson diagonalization with overlap
     ethr =  2.31E-03,  avg # of iterations =  1.0

     negative rho (up, down):  1.568E-04 0.000E+00

     total cpu time spent up to now is        2.9 secs

     total energy              =     -36.22247927 Ry
     estimated scf accuracy    <       0.04242204 Ry

     iteration #  3     ecut=    40.13 Ry     beta= 0.40
     Davidson diagonalization with overlap
     ethr =  5.30E-04,  avg # of iterations =  2.0

     negative rho (up, down):  1.403E-04 0.000E+00

     total cpu time spent up to now is        3.9 secs

     total energy              =     -36.23111111 Ry
     estimated scf accuracy    <       0.00150946 Ry

     iteration #  4     ecut=    40.13 Ry     beta= 0.40
     Davidson diagonalization with overlap
     ethr =  1.89E-05,  avg # of iterations =  2.0

     negative rho (up, down):  1.578E-04 0.000E+00

     total cpu time spent up to now is        4.9 secs

     total energy              =     -36.23113785 Ry
     estimated scf accuracy    <       0.00092741 Ry

     iteration #  5     ecut=    40.13 Ry     beta= 0.40
     Davidson diagonalization with overlap
     ethr =  1.16E-05,  avg # of iterations =  2.0

     negative rho (up, down):  1.554E-04 0.000E+00

     total cpu time spent up to now is        6.0 secs

     total energy              =     -36.23130268 Ry
     estimated scf accuracy    <       0.00001271 Ry

     iteration #  6     ecut=    40.13 Ry     beta= 0.40
     Davidson diagonalization with overlap
     ethr =  1.59E-07,  avg # of iterations =  3.1

     negative rho (up, down):  1.561E-04 0.000E+00

     total cpu time spent up to now is        7.0 secs

     total energy              =     -36.23130681 Ry
     estimated scf accuracy    <       0.00000063 Ry

     iteration #  7     ecut=    40.13 Ry     beta= 0.40
     Davidson diagonalization with overlap
     ethr =  7.93E-09,  avg # of iterations =  3.0

     negative rho (up, down):  1.568E-04 0.000E+00

     total cpu time spent up to now is        8.1 secs

     total energy              =     -36.23130712 Ry
     estimated scf accuracy    <       0.00000003 Ry

     iteration #  8     ecut=    40.13 Ry     beta= 0.40
     Davidson diagonalization with overlap
     ethr =  3.86E-10,  avg # of iterations =  3.2

     negative rho (up, down):  1.575E-04 0.000E+00

     total cpu time spent up to now is        9.5 secs

     total energy              =     -36.23130713 Ry
     estimated scf accuracy    <          5.9E-09 Ry

     iteration #  9     ecut=    40.13 Ry     beta= 0.40
     Davidson diagonalization with overlap
     ethr =  7.39E-11,  avg # of iterations =  2.1

     negative rho (up, down):  1.589E-04 0.000E+00

     total cpu time spent up to now is       10.5 secs

     End of self-consistent calculation

     Number of k-points >= 100: set verbosity='high' to print the bands.

     highest occupied level (ev):    -2.0425

!    total energy              =     -36.23130714 Ry

     total all-electron energy =      -151.789363 Ry
     estimated scf accuracy    <          5.0E-11 Ry

     The total energy is the sum of the following terms:
     one-electron contribution =    -156.57415746 Ry
     hartree contribution      =      79.87180560 Ry
     xc contribution           =      -9.15464228 Ry
     ewald contribution        =      61.40600765 Ry
     one-center paw contrib.   =     -11.78032066 Ry

     convergence has been achieved in   9 iterations

     negative rho (up, down):  1.589E-04 0.000E+00

     Forces acting on atoms (cartesian axes, Ry/au):

     atom    1 type  1   force =    -0.00153661    0.00072642    0.00000000
     atom    2 type  1   force =     0.00153661   -0.00072642    0.00000000

     Total force =     0.002404     Total SCF correction =     0.000000


     Computing stress (Cartesian axis) and pressure


     negative rho (up, down):  1.589E-04 0.000E+00
          total   stress  (Ry/bohr**3)                   (kbar)     P=       -7.55
  -0.00007121   0.00000526   0.00000000          -10.47        0.77        0.00
   0.00000526  -0.00007022   0.00000000            0.77      -10.33        0.00
   0.00000000   0.00000000  -0.00001249            0.00        0.00       -1.84


     Writing all to output data dir ./qe_suite/qe_suite.save/
 
     init_run     :     19.41s CPU      1.12s WALL (       1 calls)
     electrons    :    178.02s CPU      9.27s WALL (       1 calls)
     forces       :      3.09s CPU      0.16s WALL (       1 calls)
     stress       :     23.70s CPU      1.25s WALL (       1 calls)

     Called by init_run:
     wfcinit      :     13.64s CPU      0.72s WALL (       1 calls)
     potinit      :      1.17s CPU      0.06s WALL (       1 calls)
     hinit0       :      3.10s CPU      0.21s WALL (       1 calls)

     Called by electrons:
     c_bands      :    139.23s CPU      7.22s WALL (       9 calls)
     sum_band     :     26.75s CPU      1.41s WALL (       9 calls)
     v_of_rho     :      3.84s CPU      0.20s WALL (      10 calls)
     newd         :      3.65s CPU      0.20s WALL (      10 calls)
     PAW_pot      :      4.40s CPU      0.23s WALL (      10 calls)
     mix_rho      :      0.97s CPU      0.05s WALL (       9 calls)

     Called by c_bands:
     init_us_2    :      5.21s CPU      0.37s WALL (    4200 calls)
     init_us_2:cp :      4.87s CPU      0.35s WALL (    4200 calls)
     cegterg      :    125.03s CPU      6.48s WALL (    1800 calls)

     Called by *egterg:
     cdiaghg      :      6.24s CPU      0.21s WALL (    5900 calls)
     h_psi        :     96.73s CPU      5.02s WALL (    6100 calls)
     s_psi        :      0.58s CPU      0.13s WALL (    6100 calls)
     g_psi        :      2.04s CPU      0.07s WALL (    4100 calls)

     Called by h_psi:
     h_psi:calbec :     16.38s CPU      0.24s WALL (    6100 calls)
     vloc_psi     :     29.35s CPU      4.27s WALL (    6100 calls)
     add_vuspsi   :     45.31s CPU      0.25s WALL (    6100 calls)

     General routines
     calbec       :     21.89s CPU      0.35s WALL (    8900 calls)
     fft          :      0.98s CPU      0.07s WALL (     153 calls)
     ffts         :      0.01s CPU      0.00s WALL (      19 calls)
     fftw         :     18.81s CPU      3.21s WALL (   52050 calls)
     interpolate  :      0.18s CPU      0.01s WALL (      10 calls)
 
 
     PWSCF        :   3m47.68s CPU     12.06s WALL

 
   This run was terminated on:  14: 1:25  15Mar2022            

=------------------------------------------------------------------------------=
   JOB DONE.
=------------------------------------------------------------------------------=
